LAMMPS data file for polygons
4 atoms
4 bodies
1 atom types
0 6 xlo xhi
0 6 ylo yhi
-0.5 0.5 zlo zhi

Atoms

1 1 1 1 1 1 0
2 1 1 1 4 4 0
3 1 1 1 1 4 0
4 1 1 1 4 1 0

Bodies

1 1 22
5
20 20 0.161856276 0 0 0
0.6485251650439687 0.0 0.0 
0.20040529727840395 0.6167840841964564 0.0 
-0.5246678798003882 0.381193527753387 0.0 
-0.5246678798003883 -0.3811935277533869 0.0 
0.2004052972784038 -0.6167840841964565 0.0 
0.3
2 1 22
5
20 20 0.161856276 0 0 0
0.6485251650439687 0.0 0.0 
0.20040529727840395 0.6167840841964564 0.0 
-0.5246678798003882 0.381193527753387 0.0 
-0.5246678798003883 -0.3811935277533869 0.0 
0.2004052972784038 -0.6167840841964565 0.0 
0.3
3 1 22
5
20 20 0.161856276 0 0 0
0.6485251650439687 0.0 0.0 
0.20040529727840395 0.6167840841964564 0.0 
-0.5246678798003882 0.381193527753387 0.0 
-0.5246678798003883 -0.3811935277533869 0.0 
0.2004052972784038 -0.6167840841964565 0.0 
0.3
4 1 22
5
20 20 0.161856276 0 0 0
0.6485251650439687 0.0 0.0 
0.20040529727840395 0.6167840841964564 0.0 
-0.5246678798003882 0.381193527753387 0.0 
-0.5246678798003883 -0.3811935277533869 0.0 
0.2004052972784038 -0.6167840841964565 0.0 
0.3