LAMMPS (2 Aug 2023 - Update 1)
OMP_NUM_THREADS environment is not set. Defaulting to 1 thread. (src/comm.cpp:98)
  using 1 OpenMP thread(s) per MPI task
# 2d rounded polygon bodies

variable    r     index 7
variable    steps index 200000
variable    T     index 1
variable    P     index 0.1

include ./seed.lammps
variable    seed  index 3241

units       lj
dimension   2

atom_style  body rounded/polygon 1 6
atom_modify map array
read_data   data.squares
Reading data file ...
  orthogonal box = (0 0 -0.5) to (6 6 0.5)
  2 by 2 by 1 MPI processor grid
  reading atoms ...
  4 atoms
  4 bodies
  read_data CPU = 0.001 seconds

replicate   $r $r 1
replicate   7 $r 1
replicate   7 7 1
Replication is creating a 7x7x1 = 49 times larger system...
  orthogonal box = (0 0 -0.5) to (42 42 0.5)
  2 by 2 by 1 MPI processor grid
  196 atoms
  replicate CPU = 0.001 seconds
change_box all x final -21.0 21.0 y final -21.0 21.0
Changing box ...
  orthogonal box = (-21 0 -0.5) to (21 42 0.5)
  orthogonal box = (-21 -21 -0.5) to (21 21 0.5)

variable cut_inner  equal 0.0
variable k_n        equal 300
variable k_na       equal 0
variable c_n        equal 0
variable c_t        equal 0
variable mu         equal 0.0
variable delta_ua   equal 1.0

pair_style body/rounded/polygon ${c_n} ${c_t} ${mu} ${delta_ua} ${cut_inner}
pair_style body/rounded/polygon 0 ${c_t} ${mu} ${delta_ua} ${cut_inner}
pair_style body/rounded/polygon 0 0 ${mu} ${delta_ua} ${cut_inner}
pair_style body/rounded/polygon 0 0 0 ${delta_ua} ${cut_inner}
pair_style body/rounded/polygon 0 0 0 1 ${cut_inner}
pair_style body/rounded/polygon 0 0 0 1 0
pair_coeff * * ${k_n} ${k_na}
pair_coeff * * 300 ${k_na}
pair_coeff * * 300 0

comm_modify vel yes cutoff 12

neighbor     1.2 bin
neigh_modify every 1 delay 0 check yes

timestep     0.0001

fix          2 all enforce2d

# minimize 0.0 0 1000 100000

compute 10 all property/atom x y z quatw quati quatj quatk
dump mydump0 all custom 100 dump.quat id type c_10[1] c_10[2] c_10[3] c_10[4] c_10[5] c_10[6] c_10[7]
compute myRDF all rdf 1000 cutoff 10.0
compute 1 all temp/body
compute 1p all pressure 1
velocity    all create $T ${seed} dist gaussian mom yes rot yes
velocity    all create 1 ${seed} dist gaussian mom yes rot yes
velocity    all create 1 3241 dist gaussian mom yes rot yes

thermo_style custom step temp ke pe etotal c_1 press c_1p vol
thermo       100
thermo_modify norm no


fix          1 all npt/body temp $T $T 0.01 x 1 1 0.1 y 1 1 0.1 couple xy
fix          1 all npt/body temp 1 $T 0.01 x 1 1 0.1 y 1 1 0.1 couple xy
fix          1 all npt/body temp 1 1 0.01 x 1 1 0.1 y 1 1 0.1 couple xy
run          ${steps}
run          200000
Generated 0 of 0 mixed pair_coeff terms from geometric mixing rule
Neighbor list info ...
  update: every = 1 steps, delay = 0 steps, check = yes
  max neighbors/atom: 2000, page size: 100000
  master list distance cutoff = 2.4970503
  ghost atom cutoff = 12
  binsize = 1.2485252, bins = 34 34 1
  2 neighbor lists, perpetual/occasional/extra = 1 1 0
  (1) pair body/rounded/polygon, perpetual
      attributes: half, newton on
      pair build: half/bin/atomonly/newton
      stencil: half/bin/2d
      bin: standard
  (2) compute rdf, occasional
      attributes: half, newton on, cut 11.2
      pair build: half/bin/atomonly/newton
      stencil: half/bin/2d
      bin: standard
Per MPI rank memory allocation (min/avg/max) = 6.127 | 6.127 | 6.127 Mbytes
   Step          Temp          KinEng         PotEng         TotEng          c_1           Press           c_1p          Volume    
         0   1              195            0              195            0.66552901     0.11054422     0.11054422     1764         
       100   1.2943016      252.38881      0              252.38881      0.86139527     0.15408526     0.15408526     1637.9816    
       200   1.6593159      323.5666       0              323.5666       1.1043229      0.22370842     0.22370842     1446.3765    
       300   1.6970647      330.92761      0              330.92761      1.1294458      0.25370018     0.25370018     1304.4043    
       400   1.562152       304.61964      0              304.61964      1.0396575      0.25696501     0.25696501     1185.4518    
       500   1.4981858      292.14623      0              292.14623      0.9970861      0.26718212     0.26718212     1093.4348    
       600   1.4823911      289.06626      0              289.06626      0.98657426     0.28421012     0.28421012     1017.0864    
       700   1.4951551      291.55525      0              291.55525      0.99506911     0.3065361      0.3065361      951.12861    
       800   1.4901989      290.58879      0              290.58879      0.9917706      0.32519911     0.32519911     893.5719     
       900   1.4489698      282.54912      0              282.54912      0.96433146     0.33528744     0.33528744     842.70714    
      1000   1.413831       275.69704      0              275.69704      0.94094553     0.34587224     0.34587224     797.1066     
      1100   1.3931504      271.66433      0              271.66433      0.92718202     0.35936425     0.35936425     755.95815    
      1200   1.4701327      286.67587      0.12046651     286.79633      0.97841621     0.4153322      0.41533232     718.84868    
      1300   1.6320806      318.25572      4.5876355      322.84335      1.0865403      0.59320556     0.59335197     687.00337    
      1400   1.542015       300.69293      15.276362      315.9693       1.0297602      0.77093759     0.7724867      662.82854    
      1500   1.3736913      267.86979      29.87546       297.74525      0.92707468     1.0777006      1.0835167      647.01275    
      1600   1.3841297      269.90529      40.585435      310.49072      0.95273825     1.4053356      1.4197142      643.10997    
      1700   1.419834       276.86763      34.993623      311.86125      1.0010812      1.4002381      1.4254005      653.72108    
      1800   1.3860548      270.28069      21.290498      291.57119      0.99631796     1.1168232      1.1489957      672.63815    
      1900   1.3595569      265.1136       14.790704      279.90431      0.98607806     0.92448952     0.95908236     688.21373    
      2000   1.3842872      269.936        14.765579      284.70158      1.0071131      0.97959677     1.0157199      696.1786     
      2100   1.5543144      303.09131      17.490312      320.58162      1.1320603      1.149177       1.1899151      702.10328    
      2200   1.5067888      293.82382      17.085436      310.90926      1.1030808      1.1139723      1.1551927      712.7273     
      2300   1.2963927      252.79657      15.359175      268.15575      0.95524448     0.97610153     1.013459       725.15774    
      2400   1.2841084      250.40113      14.800834      265.20197      0.95255676     0.94642609     0.98553141     733.86436    
      2500   1.3624743      265.68249      15.662556      281.34505      1.0175834      0.94980685     0.9937444      738.99098    
      2600   1.3804479      269.18733      17.422995      286.61033      1.0380475      0.97037198     1.0174702      742.29135    
      2700   1.2849346      250.56225      19.505847      270.0681       0.97388234     0.9676794      1.0143514      745.31333    
      2800   1.0906969      212.68589      21.687456      234.37335      0.83444853     0.9297721      0.97230528     747.82858    
      2900   1.1873018      231.52385      23.664388      255.18823      0.9172139      0.98459714     1.0343034      748.79588    
      3000   1.2902397      251.59674      24.856375      276.45311      1.0033562      1.0259775      1.0824065      751.14907    
      3100   1.3080851      255.07659      24.506323      279.58292      1.0198337      1.0362546      1.0940212      757.09336    
      3200   1.2846037      250.49771      22.241012      272.73872      1.0020383      0.97007642     1.0263463      765.94267    
      3300   1.2604713      245.79191      19.234873      265.02678      0.98544942     0.89491582     0.95040826     773.88514    
      3400   1.2943058      252.38963      17.339349      269.72898      1.0170028      0.86411525     0.92275719     777.46747    
      3500   1.3418306      261.65697      18.856989      280.51396      1.0602889      0.87960889     0.94273278     776.37283    
      3600   1.2508156      243.90904      23.13131       267.04035      0.99436274     0.93909853     1.0004741      772.93337    
      3700   1.1286468      220.08613      27.794275      247.88041      0.90449269     0.98704212     1.045363       770.39634    
      3800   1.215356       236.99441      28.979172      265.97358      0.98343545     1.0067994      1.073154       770.89078    
      3900   1.3096673      255.38513      26.389569      281.7747       1.0688967      0.95282365     1.0274011      775.05541    
      4000   1.2383221      241.47282      22.884409      264.35723      1.0185165      0.84780582     0.92085789     779.61546    
      4100   1.1730761      228.74983      20.877179      249.62701      0.9715302      0.8071412      0.87889079     779.21733    
      4200   1.180147       230.12867      20.870211      250.99888      0.98281477     0.85425648     0.92910872     772.66961    
      4300   1.2846044      250.49786      21.852275      272.35014      1.0736821      0.96012629     1.0440255      763.90476    
      4400   1.3071654      254.89724      21.143792      276.04104      1.0956696      0.999004       1.0861447      758.93314    
      4500   1.1396797      222.23755      18.744898      240.98244      0.95926082     0.9172428      0.99476276     758.84816    
      4600   1.1270004      219.76508      16.983919      236.749        0.95409144     0.87548407     0.95426489     758.86117    
      4700   1.2121278      236.36492      16.442752      252.80767      1.034148       0.88903088     0.97708741     756.79158    
      4800   1.2498523      243.7212       16.484343      260.20554      1.0749421      0.90274791     0.99724057     753.88746    
      4900   1.0655596      207.78411      16.753868      224.53798      0.92085108     0.8633894      0.94599026     750.90326    
      5000   1.0649601      207.66721      17.660858      225.32807      0.92135211     0.89210156     0.97558716     746.10423    
      5100   1.1951035      233.04519      17.496286      250.54148      1.0348643      0.95478241     1.0494743      741.03526    
      5200   1.2117658      236.29434      16.631711      252.92605      1.0519016      0.93202357     1.029359       738.81479    
      5300   1.1164052      217.69901      17.369796      235.06881      0.97252943     0.89424302     0.98532293     738.38573    
      5400   1.0787348      210.35328      18.886182      229.23947      0.94290639     0.92650487     1.0158584      737.72444    
      5500   1.2844037      250.45872      19.907976      270.3667       1.1229955      0.99138961     1.0978284      738.25476    
      5600   1.2671244      247.08926      18.146885      265.23614      1.1048809      0.92040246     1.0235389      743.10113    
      5700   1.116819       217.7797       15.593588      233.37328      0.96847104     0.79141151     0.87955668     748.56423    
      5800   1.109168       216.28777      14.974004      231.26177      0.95537318     0.8018357      0.8869259      747.87193    
      5900   1.2140077      236.7315       16.573702      253.3052       1.0392769      0.89377899     0.98517656     741.55821    
      6000   1.2758152      248.78396      19.050658      267.83462      1.0898561      0.95845655     1.0544586      734.81658    
      6100   1.0888127      212.31847      20.607911      232.92638      0.93463309     0.93056942     1.0147562      730.8635     
      6200   1.0726221      209.16131      20.41848       229.57979      0.92991798     0.94894794     1.0358517      728.44549    
      6300   1.1693135      228.01612      18.91888       246.935        1.0236608      0.9562185      1.0550014      728.02576    
      6400   1.1870162      231.46815      16.403014      247.87117      1.0476693      0.89804922     1.0014364      730.25486    
      6500   1.0981165      214.13271      15.090714      229.22342      0.97528563     0.80328118     0.90108209     732.36519    
      6600   0.96729254     188.62205      16.278408      204.90045      0.86334996     0.781939       0.87013357     729.51756    
      6700   0.94701737     184.66839      19.834368      204.50275      0.84812317     0.87479403     0.96340115     720.39017    
      6800   1.1575828      225.72865      23.308193      249.03684      1.037785       1.0585495      1.1688014      710.57611    
      6900   1.1757161      229.26463      21.268301      250.53293      1.0544138      1.0321924      1.1446271      708.66561    
      7000   1.074144       209.45808      15.72136       225.17944      0.96437494     0.86140933     0.963869       713.48831    
      7100   1.0421453      203.21834      12.66388       215.88222      0.93828175     0.75593812     0.85597323     716.73046    
      7200   1.155383       225.29968      14.203627      239.50331      1.046412       0.83359517     0.94754068     713.49045    
      7300   1.2138682      236.70431      17.536994      254.2413       1.1093769      0.93206493     1.0568924      707.7219     
      7400   1.0768237      209.98063      19.392029      229.37266      0.99553693     0.94683733     1.0628237      704.49389    
      7500   1.050292       204.80693      18.105203      222.91213      0.98219628     0.92097327     1.0387425      704.56894    
      7600   1.0698381      208.61842      14.504568      223.12299      1.0091436      0.85541525     0.97862382     706.61204    
      7700   1.0803719      210.67252      12.953167      223.62569      1.0234205      0.83239367     0.95839536     707.8451     
      7800   1.0339608      201.62235      15.360436      216.98279      0.97946175     0.87104236     0.99173126     707.2725     
      7900   0.97297689     189.73049      20.329538      210.06003      0.91847399     0.97999859     1.0923108      706.80123    
      8000   1.0525006      205.23761      23.458326      228.69594      0.98863781     1.0142088      1.132977       710.90772    
      8100   1.1257109      219.51363      20.72622       240.23985      1.056104       0.89779143     1.0223604      721.88818    
      8200   1.0675398      208.17025      16.481751      224.652        1.0032444      0.73976906     0.85651971     734.73122    
      8300   1.0084285      196.64356      14.675487      211.31905      0.94894368     0.69287693     0.80275823     740.77157    
      8400   1.0508747      204.92057      16.929402      221.84998      0.98659488     0.77665765     0.89089944     736.61072    
      8500   1.1919603      232.43225      22.379455      254.81171      1.1145432      0.96806329     1.0975272      727.06668    
      8600   1.1036158      215.20508      25.762176      240.96726      1.0320538      1.0568398      1.1776016      721.97264    
      8700   1.0047015      195.91679      22.333213      218.25001      0.94546631     0.99021218     1.1019628      725.76631    
      8800   1.0226058      199.40814      16.880664      216.2888       0.9690774      0.8561104      0.97108089     735.24552    
      8900   1.0834116      211.26526      13.670571      224.93583      1.0312379      0.77413993     0.89630898     743.94819    
      9000   1.0856268      211.69723      13.446879      225.14411      1.0345392      0.75143189     0.87374537     747.44637    
      9100   0.95343901     185.92061      15.287035      201.20764      0.90849865     0.76532227     0.87320469     744.04614    
      9200   0.90168797     175.82915      20.165991      195.99515      0.85796005     0.9063433      1.0092589      734.12687    
      9300   1.0408161      202.95913      25.965352      228.92448      0.98776929     1.0798072      1.1990997      724.75035    
      9400   1.1010731      214.70926      24.083172      238.79243      1.0452008      0.99510477     1.1214281      724.60535    
      9500   1.0585768      206.42247      18.089105      224.51157      1.0055291      0.81064543     0.93136396     730.60485    
      9600   0.98155046     191.40234      14.007282      205.40962      0.93020179     0.71692362     0.82752771     733.66889    
      9700   1.0057109      196.11362      14.242694      210.35631      0.9472196      0.74254176     0.85438364     728.00748    
      9800   1.1967778      233.37166      18.366824      251.73849      1.1208841      0.93175624     1.0646327      715.30626    
      9900   1.1386263      222.03213      24.115774      246.14791      1.0651308      1.01144        1.1391482      705.13218    
     10000   1.034006       201.63117      26.353953      227.98512      0.97188587     0.99702808     1.1155113      701.63024    
     10100   1.0305977      200.96656      23.176168      224.14273      0.97649831     0.94694918     1.0679082      703.93624    
     10200   1.0782564      210.26         17.140235      227.40024      1.0302085      0.82877808     0.9578381      709.67815    
     10300   1.1278441      219.9296       13.041708      232.9713       1.0834367      0.76383311     0.90042649     713.92449    
     10400   1.0379314      202.39662      12.544104      214.94073      0.99883534     0.72467744     0.85124043     713.17949    
     10500   0.96059598     187.31622      16.158537      203.47475      0.92170547     0.79495646     0.91229717     705.15585    
     10600   1.0465012      204.06773      21.882346      225.95008      0.99804294     1.0081405      1.13562        693.12172    
     10700   1.1453114      223.33572      23.384865      246.72058      1.0859711      1.1345135      1.2725112      687.35803    
     10800   1.0366574      202.1482       17.276943      219.42514      0.98117859     0.91683461     1.0399342      693.23664    
     10900   0.93459561     182.24614      12.893159      195.1393       0.88553401     0.70448433     0.81453794     701.61551    
     11000   1.0061433      196.19795      14.937584      211.13553      0.95270623     0.73606417     0.85417524     702.26256    
     11100   1.0965612      213.82944      21.175546      235.00498      1.0358733      0.90755619     1.036361       696.25863    
     11200   1.1024593      214.97957      25.478351      240.45792      1.0408822      1.0338378      1.1639435      691.7372     
     11300   1.0044818      195.87395      21.800444      217.67439      0.95061645     0.97686742     1.0958929      694.44518    
     11400   0.94520113     184.31422      14.909895      199.22412      0.89664118     0.82059466     0.93229003     701.92386    
     11500   1.1175667      217.9255       11.798911      229.72441      1.0593549      0.76995647     0.90071253     707.16036    
     11600   1.1361212      221.54364      12.33233       233.87597      1.0746478      0.7800166      0.91190489     707.63047    
     11700   1.0331372      201.46176      15.254571      216.71633      0.97515024     0.8416757      0.96139591     703.78478    
     11800   1.0063715      196.24244      19.285315      215.52775      0.94931434     0.94321495     1.0605684      697.94878    
     11900   1.0874029      212.04356      21.819841      233.8634       1.0270083      0.99974087     1.1276779      694.63756    
     12000   1.1934763      232.72788      20.676089      253.40396      1.1310166      0.97821319     1.1196807      697.40389    
     12100   1.0214175      199.17641      16.479647      215.65605      0.97199292     0.81989022     0.94114691     706.08494    
     12200   0.95359944     185.95189      13.10444       199.05633      0.90975968     0.71996763     0.83298155     713.25461    
     12300   1.0604922      206.79599      13.214021      220.01001      1.0093596      0.79013492     0.91487715     713.04148    
     12400   1.1223644      218.86105      16.83018       235.69123      1.0623244      0.91984992     1.0502816      708.41658    
     12500   1.0467031      204.10711      20.353929      224.46104      0.98804945     1.0288718      1.1497932      706.17294    
     12600   0.95319058     185.87216      18.875068      204.74723      0.90206882     0.95183967     1.0621711      710.89424    
     12700   1.0718986      209.02023      14.61062       223.63085      1.0191869      0.81590719     0.94042381     719.59499    
     12800   1.14009        222.31755      12.251688      234.56924      1.0880391      0.71132775     0.84414495     726.39619    
     12900   1.0384657      202.50081      11.911479      214.41229      0.99183503     0.66429087     0.78571382     725.61942    
     13000   1.0006383      195.12446      15.084076      210.20854      0.95289585     0.8038735      0.92166026     713.78164    
     13100   1.065329       207.73915      22.957466      230.69662      1.0099727      1.0844481      1.2108818      697.46329    
     13200   1.1795345      230.00924      25.189375      255.19861      1.1163708      1.1632927      1.303983       690.07889    
     13300   1.0977419      214.05967      18.15312       232.21279      1.0422023      0.95079818     1.0819322      696.27685    
     13400   0.96847715     188.85304      11.25381       200.10685      0.92418283     0.71064291     0.82652067     707.06       
     13500   1.0183945      198.58692      9.2384935      207.82542      0.97491668     0.65878476     0.78132891     710.46771    
     13600   1.1143009      217.28867      11.592348      228.88102      1.0659781      0.74420709     0.87933307     703.36514    
     13700   1.0861763      211.80438      17.668364      229.47274      1.0352994      0.92139133     1.0540038      690.26945    
     13800   0.99004436     193.05865      23.947672      217.00632      0.94056969     1.0835482      1.2049797      679.62817    
     13900   1.0082547      196.60967      22.598715      219.20838      0.95801537     1.0840436      1.2080119      678.30947    
     14000   1.0515017      205.04284      14.847489      219.89033      1.0025784      0.88499319     1.0142699      686.22297    
     14100   1.0804282      210.68349      9.8982316      220.58173      1.0333381      0.72314333     0.85558769     695.26983    
     14200   1.0536349      205.45881      9.9294208      215.38823      1.0082542      0.69142262     0.82032764     697.87553    
     14300   0.96357977     187.89805      13.969438      201.86749      0.92055589     0.76621514     0.88443667     692.1313     
     14400   0.97771425     190.65428      20.065798      210.72008      0.93253296     0.93806946     1.0592824      681.263      
     14500   1.1387031      222.0471       23.750281      245.79738      1.0865165      1.1454847      1.2883941      673.86935    
     14600   1.1033786      215.15883      18.53672       233.69555      1.0583246      0.99504619     1.1350128      678.23524    
     14700   1.0115175      197.2459       11.797958      209.04386      0.97707578     0.74312408     0.87241925     688.63592    
     14800   1.005167       196.00756      9.4669039      205.47447      0.97405037     0.64595293     0.77482996     693.60063    
     14900   1.0499273      204.73582      12.200212      216.93603      1.0152849      0.74944776     0.88413383     688.58381    
     15000   1.0828227      211.15043      18.959757      230.11018      1.0446935      0.9208379      1.0607739      678.48704    
     15100   1.0156587      198.05345      23.157306      221.21076      0.97992316     0.98090878     1.1136354      671.03387    
     15200   0.95747399     186.70743      21.423267      208.13069      0.92473897     0.94579065     1.0717721      668.67834    
     15300   1.0320875      201.25707      17.751538      219.00861      0.99627589     0.91542765     1.0507598      669.8467     
     15400   1.1137457      217.18041      16.043117      233.22353      1.0733591      0.88945254     1.0339548      673.44128    
     15500   1.0448226      203.7404       14.34376       218.08416      1.0053218      0.81350304     0.94737046     678.42404    
     15600   0.92409096     180.19774      13.363778      193.56151      0.88651338     0.75750983     0.8743091      681.08887    
     15700   1.0024385      195.4755       14.239891      209.71539      0.9563661      0.83701012     0.96189347     678.55137    
     15800   1.1089414      216.24356      15.392519      231.63608      1.0516413      0.93900429     1.0752589      674.37966    
     15900   1.0729368      209.22268      14.492138      223.71481      1.0124174      0.93767029     1.0675067      673.27529    
     16000   1.0109422      197.13374      12.579008      209.71274      0.95077559     0.87760293     0.99823629     675.13255    
     16100   1.0307256      200.99149      11.175338      212.16683      0.96736288     0.85964972     0.98137168     677.32917    
     16200   1.1367142      221.65927      11.417865      233.07714      1.0666333      0.87701336     1.0108321      679.01032    
     16300   1.1262092      219.6108       11.952699      231.5635       1.0584337      0.84802611     0.9809038      681.15472    
     16400   0.95690312     186.59611      13.13773       199.73384      0.90244916     0.78471537     0.89877019     682.31661    
     16500   0.96915709     188.98563      15.668078      204.65371      0.91733581     0.84764456     0.96509061     679.4078     
     16600   1.0476087      204.2837       18.936586      223.22028      0.99489491     0.97713694     1.1063835      674.83832    
     16700   1.0821412      211.01752      20.482528      231.50005      1.0309256      1.0411887      1.1761029      674.82681    
     16800   1.0435428      203.49084      17.601274      221.09212      0.99769725     0.9003104      1.0304387      682.66823    
     16900   0.95782232     186.77535      13.88196       200.65731      0.91720302     0.75404966     0.87227843     693.2757     
     17000   0.97447151     190.02194      11.950882      201.97283      0.93087949     0.71570541     0.8340341      699.11826    
     17100   1.1231263      219.00962      12.531039      231.54066      1.0670181      0.82205829     0.95622664     697.82987    
     17200   1.1107373      216.59377      14.069399      230.66317      1.0498128      0.90417249     1.0352959      694.01307    
     17300   1.020186       198.93628      15.27264       214.20892      0.96101075     0.913774       1.0333167      691.29982    
     17400   1.0201514      198.92952      15.719416      214.64893      0.9588058      0.9106737      1.0295007      690.08368    
     17500   1.0722236      209.0836       15.983941      225.06754      1.0067847      0.88796605     1.0124224      690.2368     
     17600   1.0734975      209.33201      17.071491      226.4035       1.0106076      0.86960528     0.99516308     691.12398    
     17700   1.0497218      204.69575      18.554045      223.2498       0.99456225     0.88500838     1.0102871      692.1445     
     17800   1.0321806      201.27521      20.208517      221.48373      0.98690864     0.90400544     1.0306407      694.03261    
     17900   1.0651888      207.71182      20.514856      228.22668      1.0272548      0.86660316     1.0002814      697.74863    
     18000   1.1338568      221.10207      19.125048      240.22712      1.099362       0.8107497      0.95457223     702.33075    
     18100   1.0385574      202.51869      16.191817      218.7105       1.0086194      0.73335964     0.86523936     705.23958    
     18200   0.96513191     188.20072      14.324708      202.52543      0.9338173      0.76924175     0.89089407     702.06429    
     18300   1.0357442      201.97011      16.017591      217.9877       0.99471937     0.94251372     1.0716269      693.05605    
     18400   1.101176       214.72931      18.523929      233.25324      1.0505298      1.0638394      1.1995399      685.89207    
     18500   1.0170595      198.3266       17.855613      216.18221      0.96805847     0.98229434     1.1065202      686.76972    
     18600   0.89018514     173.5861       14.577161      188.16326      0.84776287     0.81456544     0.92250818     693.03803    
     18700   0.98953221     192.95878      12.853083      205.81186      0.94198519     0.79315196     0.91220226     697.54453    
     18800   1.0701917      208.68738      13.375223      222.0626       1.0154562      0.85890552     0.98607574     698.60127    
     18900   1.0913464      212.81256      14.122099      226.93466      1.0317641      0.91439137     1.0424049      699.10076    
     19000   1.0383988      202.48777      12.601361      215.08913      0.98074239     0.87337507     0.99431705     701.73933    
     19100   0.95570051     186.3616       11.613766      197.97536      0.90337026     0.77828643     0.88945632     704.56031    
     19200   1.0238127      199.64348      14.006303      213.64978      0.96953534     0.79203919     0.91220799     702.59814    
     19300   1.1399799      222.29608      19.564369      241.86044      1.084316       0.96423665     1.1012695      696.24558    
     19400   1.0593673      206.57662      22.95998       229.5366       1.01874        1.047412       1.179964       693.41997    
     19500   0.96490859     188.15717      20.177106      208.33428      0.94395156     0.92903909     1.0555499      698.91764    
     19600   0.97197419     189.53497      16.309932      205.8449       0.96651768     0.80833769     0.9403659      709.35375    
     19700   1.0479041      204.3413       14.430281      218.77158      1.0551633      0.75895345     0.90465954     719.40401    
     19800   1.0251461      199.90349      15.227594      215.13108      1.0417584      0.73864116     0.88366644     726.29892    
     19900   0.97621014     190.36098      18.452872      208.81385      0.99685398     0.79276415     0.93242464     728.31798    
     20000   0.95021096     185.29114      22.325416      207.61655      0.97238075     0.91485691     1.0518299      727.27043    
     20100   0.98100709     191.29638      22.00329       213.29967      1.0074102      0.96051557     1.1030318      728.86321    
     20200   1.0334294      201.51873      15.956098      217.47483      1.0699628      0.89130659     1.0433019      736.73552    
     20300   0.96594437     188.35915      10.746756      199.10591      1.0140084      0.68719015     0.83248478     748.44683    
     20400   0.83964083     163.72996      11.135557      174.86552      0.89358681     0.59008611     0.72035524     752.98714    
     20500   0.89659407     174.83584      16.785331      191.62117      0.96382542     0.76934391     0.91419381     742.59631    
     20600   0.97627502     190.37363      27.874562      218.24819      1.0571196      1.0524413      1.216898       725.79859    
     20700   0.9447153      184.21948      32.174602      216.39409      1.0297375      1.156801       1.3203715      718.3056     
     20800   0.88557103     172.68635      23.430464      196.11682      0.97029653     0.91352997     1.0672446      726.08894    
     20900   0.8750724      170.63912      15.403639      186.04276      0.96024047     0.64834457     0.7981506      739.03126    
     21000   1.009788       196.90866      13.704272      210.61293      1.1013608      0.61554942     0.78480385     743.20095    
     21100   1.0415403      203.10037      16.552445      219.65281      1.1211884      0.72820473     0.89866059     735.72024    
     21200   0.95712533     186.63944      25.673991      212.31343      1.0115694      1.0080562      1.1599567      722.51477    
     21300   0.93651155     182.61975      32.1877        214.80745      0.97604038     1.1890885      1.3333078      716.68699    
     21400   0.94560688     184.39334      22.67052       207.06386      0.98583459     0.97323548     1.1169592      726.78447    
     21500   1.0026262      195.51212      10.911771      206.42389      1.0538706      0.6754872      0.82775563     743.89657    
     21600   1.0387864      202.56335      6.2587415      208.82209      1.0961283      0.56286381     0.72040521     752.83225    
     21700   0.9038468      176.25013      9.0662241      185.31635      0.95231769     0.6125674      0.7502592      746.44209    
     21800   0.88811155     173.18175      21.110585      194.29234      0.93144623     0.92842176     1.0654412      727.86735    
     21900   0.97424357     189.9775       33.058731      223.03623      1.0209021      1.233832       1.3867105      713.94466    
     22000   0.9973219      194.47777      27.380214      221.85798      1.049022       1.092557       1.2496829      718.44115    
     22100   0.91889666     179.18485      16.35943       195.54428      0.97059155     0.76720646     0.91042297     734.54157    
     22200   0.78479518     153.03506      12.262305      165.29736      0.82858408     0.63772504     0.75809073     745.56186    
     22300   0.79956544     155.91526      15.216395      171.13166      0.83875686     0.69841443     0.81924223     743.54161    
     22400   0.94597796     184.4657       23.102564      207.56827      0.98274512     0.87974706     1.0209106      733.04091    
     22500   1.0210666      199.108        28.747961      227.85596      1.048          1.0042811      1.153218       724.84377    
     22600   1.0111973      197.18348      26.875327      224.05881      1.0250425      0.97082831     1.1131671      724.70716    
     22700   0.94179313     183.64966      20.816228      204.46589      0.94480392     0.84213395     0.969822       729.73067    
     22800   0.95618587     186.45625      17.719954      204.1762       0.94927371     0.78985859     0.91491388     733.12336    
     22900   1.1108993      216.62536      16.767232      233.39259      1.09198        0.80464077     0.94573648     732.30282    
     23000   1.1163102      217.68049      15.915374      233.59586      1.0887071      0.81602933     0.95504875     728.75213    
     23100   1.0504461      204.83698      15.161191      219.99817      1.0192308      0.79897209     0.92868462     723.11938    
     23200   1.0296675      200.78517      17.114909      217.90008      0.99652494     0.86399841     0.99156655     714.88568    
     23300   1.007678       196.49721      22.417614      218.91482      0.97557676     0.98583961     1.1121339      707.44921    
     23400   1.0157978      198.08057      24.664696      222.74526      0.98880058     0.97616563     1.106027       705.66003    
     23500   1.1012124      214.73642      21.612927      236.34935      1.0800738      0.89331879     1.0367895      709.0311     
     23600   1.0869067      211.9468       16.472712      228.41952      1.0707178      0.77141649     0.91398995     713.83212    
     23700   0.95496809     186.21878      14.634208      200.85299      0.9391746      0.7064895      0.83102974     714.30232    
     23800   0.98602675     192.27522      16.140495      208.41571      0.96280132     0.78609447     0.91312521     707.11683    
     23900   1.0715392      208.95015      19.867272      228.81742      1.0365064      0.97448851     1.1104517      696.85234    
     24000   1.0734087      209.3147       21.020375      230.33508      1.032139       1.0619026      1.1963854      692.29722    
     24100   0.90134204     175.7617       18.784604      194.5463       0.86698112     0.94112326     1.0534925      696.48773    
     24200   0.89735114     174.98347      17.471991      192.45546      0.8653873      0.87112619     0.98279743     703.62798    
     24300   0.98359023     191.80009      17.630404      209.4305       0.95078404     0.89884371     1.0210576      710.06364    
     24400   1.0498713      204.7249       18.111694      222.8366       1.0166313      0.91135097     1.0412221      717.23465    
     24500   1.0662598      207.92066      17.63579       225.55645      1.0340533      0.85877506     0.98970749     726.00005    
     24600   1.0243298      199.7443       16.964793      216.7091       0.99290449     0.79326593     0.91751439     733.82569    
     24700   0.96248332     187.68425      16.505381      204.18963      0.92955922     0.79425535     0.90909762     737.32956    
     24800   1.0035443      195.69114      16.643098      212.33424      0.96224945     0.85000653     0.96716469     736.16675    
     24900   1.1447132      223.21907      17.297515      240.51658      1.0880484      0.9061886      1.0364939      733.50139    
     25000   1.1027303      215.03241      17.730211      232.76263      1.0423788      0.88218294     1.0055676      732.54329    
     25100   1.0080752      196.57466      17.606077      214.18074      0.95274357     0.86117659     0.97398033     732.06086    
     25200   1.0239403      199.66836      17.571884      217.24024      0.9720141      0.85686841     0.97342774     730.37292    
     25300   1.0570411      206.12302      19.325708      225.44873      1.0093005      0.86303789     0.98621789     727.40724    
     25400   1.0619835      207.08678      21.628192      228.71497      1.019768       0.88347693     1.0101575      723.90942    
     25500   1.0045663      195.89042      23.132766      219.02319      0.9687717      0.89658285     1.0185826      720.98253    
     25600   0.89667085     174.85082      23.917461      198.76828      0.86627877     0.89880153     1.0086502      718.8876     
     25700   0.99942524     194.88792      23.41306       218.30098      0.96494118     0.95322246     1.0756141      717.69471    
     25800   1.0821685      211.02285      21.949088      232.97194      1.0420295      0.95327976     1.0841885      720.28664    
     25900   1.0488764      204.53091      18.668572      223.19948      1.0064663      0.85454339     0.97880845     727.18528    
     26000   1.001559       195.304        15.300745      210.60474      0.95580262     0.760592       0.87613911     733.43397    
     26100   1.0299532      200.84087      13.570609      214.41148      0.97544251     0.75399699     0.86980541     733.65811    
     26200   1.1774642      229.60551      14.418716      244.02423      1.1057231      0.86445542     0.99421293     727.29012    
     26300   1.1285359      220.0645       18.972379      239.03688      1.0527191      0.96584558     1.088591       720.04489    
     26400   1.0129681      197.52878      23.329181      220.85796      0.94384461     0.976864       1.0870965      716.82717    
     26500   1.0340765      201.64492      23.731783      225.3767       0.96743353     0.90828034     1.0222417      717.9024     
     26600   1.0978072      214.0724       21.47402       235.54642      1.0331396      0.84209951     0.96513903     720.39873    
     26700   1.0940318      213.33619      20.462357      233.79855      1.0334978      0.81691111     0.94092559     721.51778    
     26800   0.93550372     182.42322      21.881216      204.30444      0.88390261     0.80111067     0.90749727     719.64182    
     26900   0.93031092     181.41063      25.678409      207.08904      0.87832584     0.91144318     1.0178816      713.45329    
     27000   1.0469017      204.14583      29.464986      233.61081      0.99155963     1.0469864      1.1690333      707.76983    
     27100   1.0791366      210.43165      27.771443      238.20309      1.030888       1.0064675      1.1355761      709.62377    
     27200   1.0339274      201.61585      22.916194      224.53204      0.99718478     0.85691354     0.98290151     718.79315    
     27300   0.96238662     187.66539      19.567723      207.23311      0.93431129     0.75004942     0.8681842      728.72544    
     27400   0.98884682     192.82513      19.600113      212.42524      0.96232398     0.73515974     0.85677739     732.91825    
     27500   1.1144894      217.32543      22.565249      239.89067      1.0843987      0.84060528     0.97810839     730.18998    
     27600   1.0708992      208.82535      25.287773      234.11312      1.042962       0.90809903     1.041465       725.54112    
     27700   0.98093389     191.28211      24.78454       216.06665      0.958528       0.95295056     1.0768797      722.724      
     27800   0.99348277     193.72914      20.165433      213.89457      0.97595549     0.91718686     1.0446249      723.69142    
     27900   1.0232133      199.52659      14.629558      214.15615      1.0112639      0.81753349     0.95061114     727.19752    
     28000   1.0206418      199.02515      12.553644      211.57879      1.0121858      0.78019187     0.91403214     728.8188     
     28100   1.0021274      195.41485      16.064281      211.47913      0.99077242     0.84539276     0.97603968     726.24344    
     28200   1.0090528      196.7653       21.368926      218.13422      0.98820955     0.91333187     1.0418555      721.8912     
     28300   1.1438059      223.04215      22.330858      245.37301      1.1095102      0.9466637      1.0885516      719.18966    
     28400   1.1634539      226.87351      17.662928      244.53644      1.1202384      0.85883633     0.99950182     720.54867    
     28500   1.0225079      199.38905      13.238959      212.628        0.97656468     0.73703796     0.85716181     722.12474    
     28600   1.0159355      198.10742      12.293848      210.40126      0.96052398     0.72312303     0.83942294     716.47608    
     28700   1.1006799      214.63258      17.24353       231.87611      1.0259865      0.89414992     1.0166773      701.73231    
     28800   1.1681326      227.78585      27.51902       255.30487      1.0711533      1.2384129      1.3637039      686.89784    
     28900   1.0381325      202.43583      26.822225      229.25805      0.94447518     1.1932171      1.3013398      687.14008    
     29000   0.99273812     193.58393      14.985047      208.56898      0.90553472     0.84600019     0.9482296      701.73289    
     29100   1.0832947      211.24246      8.1937519      219.43621      0.9938861      0.65622532     0.76791528     715.96562    
     29200   1.1111968      216.68338      8.5640072      225.24739      1.0216539      0.65373787     0.7686246      719.50182    
     29300   1.0935088      213.23422      15.999608      229.23383      1.0016365      0.8273633      0.94011878     711.67509    
     29400   1.0640742      207.49447      29.288568      236.78304      0.96793402     1.1123697      1.2209243      701.12358    
     29500   1.0827525      211.13673      34.09009       245.22682      0.98064024     1.1986415      1.3073841      700.65366    
     29600   1.1819956      230.48915      23.167448      253.6566       1.0726158      0.98227172     1.0995145      714.64761    
     29700   1.1420376      222.69734      11.200169      233.8975       1.0414587      0.70026213     0.8125868      734.0334     
     29800   1.0190057      198.70611      6.5758734      205.28198      0.93145322     0.53920203     0.63902452     743.41648    
     29900   1.0441216      203.60371      9.0425572      212.64627      0.9515653      0.63533391     0.73777658     734.11719    
     30000   1.2264494      239.15764      20.81828       259.97592      1.1116719      0.98054481     1.101842       713.63742    
     30100   1.2072865      235.42087      33.800552      269.22142      1.0949896      1.2173697      1.3392554      700.7473     
     30200   1.1064296      215.75378      32.854739      248.60852      1.0144013      1.1274229      1.2431029      704.23427    
     30300   1.0475356      204.26945      21.609776      225.87922      0.97305499     0.88376495     0.99636019     717.93144    
     30400   1.0483746      204.43305      13.760764      218.19381      0.98124629     0.68615816     0.80003703     729.47791    
     30500   1.1187176      218.14992      12.056289      230.20621      1.0481156      0.6564597      0.77831011     729.9766     
     30600   1.1348725      221.30013      14.969571      236.2697       1.0579393      0.76902282     0.89214778     720.21206    
     30700   1.0108756      197.12074      22.014927      219.13567      0.93362894     0.94882485     1.0568468      707.5649     
     30800   1.0249457      199.86441      27.329986      227.1944       0.93730073     1.0814074      1.1882017      700.08155    
     30900   1.1157167      217.56476      25.149231      242.71399      1.0124938      1.0475534      1.1602302      701.97125    
     31000   1.1319287      220.72609      18.331986      239.05807      1.0237925      0.86125097     0.97281991     710.27936    
     31100   1.1094204      216.33697      14.052593      230.38957      1.001687       0.71852065     0.82625423     716.1864     
     31200   1.1059725      215.66464      13.359156      229.0238       0.99535954     0.71892855     0.8254126      713.49371    
     31300   1.1156789      217.55739      15.971157      233.52854      0.99959569     0.84618929     0.95324526     703.596      
     31400   1.0544419      205.61617      21.998661      227.61483      0.94286607     1.031815       1.1336664      693.59495    
     31500   1.039107       202.62586      24.710014      227.33587      0.93173951     1.0816026      1.1834612      690.89754    
     31600   1.147948       223.84985      20.210457      244.06031      1.0372229      0.97439823     1.0893463      696.45778    
     31700   1.166286       227.42577      14.205803      241.63157      1.0628861      0.82363414     0.94276459     705.10823    
     31800   1.052253       205.18933      12.586351      217.77568      0.96391933     0.72476122     0.83357287     709.84155    
     31900   0.99139221     193.32148      18.111055      211.43254      0.90566336     0.8154878      0.91738365     706.97561    
     32000   1.1906477      232.17631      26.947057      259.12336      1.0794421      1.0584679      1.1783278      701.65435    
     32100   1.1809057      230.27662      28.841045      259.11766      1.0648637      1.1062524      1.2222691      704.45391    
     32200   1.0583532      206.37886      20.981553      227.36042      0.95283739     0.92993139     1.031529       716.57675    
     32300   1.0453272      203.8388       13.44494       217.28374      0.94115213     0.76803699     0.86671305     728.83706    
     32400   1.1695752      228.06717      11.648282      239.71546      1.0507179      0.76118802     0.86997012     733.51381    
     32500   1.1937281      232.77697      14.155168      246.93214      1.0677638      0.81688518     0.9264019      731.19266    
     32600   1.1243544      219.24911      19.327385      238.5765       1.0015123      0.92558011     1.0277924      725.88146    
     32700   1.1046444      215.40566      23.432421      238.83808      0.98513586     1.0165499      1.117873       722.82721    
     32800   1.1065055      215.76857      22.769551      238.53812      0.99515506     0.98581518     1.090292       725.63306    
     32900   1.1306729      220.48122      19.20475       239.68597      1.0283666      0.89821494     1.0085613      732.51358    
     33000   1.1774449      229.60175      15.664799      245.26655      1.0821538      0.82816111     0.94647984     739.26856    
     33100   1.0977179      214.05499      14.874132      228.92912      1.0168935      0.80199026     0.91492737     742.84542    
     33200   0.98350889     191.78423      17.110306      208.89454      0.9158831      0.81857094     0.92179064     741.81102    
     33300   1.0373422      202.28173      21.558245      223.83997      0.96917452     0.93640214     1.0471661      737.48154    
     33400   1.127086       219.78178      24.928347      244.71012      1.0558994      0.99049565     1.1122575      735.83616    
     33500   1.0921926      212.97756      23.138358      236.11592      1.0273881      0.90127046     1.0203097      739.64781    
     33600   1.0478243      204.32573      19.712146      224.03788      0.99062254     0.79656717     0.91200865     744.33101    
     33700   1.0401919      202.83742      18.472238      221.30966      0.98694659     0.79228352     0.90825557     744.47191    
     33800   1.0758224      209.78537      20.934864      230.72023      1.0204287      0.92201291     1.0424808      740.44855    
     33900   1.1601614      226.23148      24.404051      250.63553      1.0976221      1.0263595      1.1554146      739.0004     
     34000   1.0818478      210.96032      22.458173      233.41849      1.0218943      0.9487734      1.067476       745.17957    
     34100   0.97443991     190.01578      17.604156      207.61994      0.91932599     0.80570515     0.91085182     754.62911    
     34200   1.0314722      201.13708      15.06184       216.19892      0.97163651     0.73951044     0.84956027     759.22345    
     34300   1.1292792      220.20945      15.958676      236.16813      1.0619307      0.76685389     0.8871916      755.67548    
     34400   1.11176        216.7932       18.954604      235.7478       1.0450157      0.84702765     0.96683453     746.17084    
     34500   1.0694291      208.53868      23.168923      231.7076       1.0075573      0.95114074     1.0689538      735.70438    
     34600   1.0378101      202.37297      25.455274      227.82824      0.98102328     0.98621178     1.1028436      729.36249    
     34700   1.0355327      201.92887      23.505185      225.43406      0.98218367     0.97480397     1.0926119      728.73639    
     34800   1.0961301      213.74537      19.647222      233.3926       1.0434621      0.92963349     1.0551403      732.9404     
     34900   1.1312057      220.58511      16.996521      237.58163      1.0796113      0.86900241     0.9983779      740.02435    
     35000   1.0088816      196.73192      16.552973      213.28489      0.96425172     0.8024755      0.91735359     746.82506    
     35100   0.95565458     186.35264      18.331873      204.68452      0.91382591     0.82844429     0.93705654     749.43983    
     35200   1.0708755      208.82073      20.222372      229.0431       1.0238041      0.90813        1.0298448      748.91345    
     35300   1.1084063      216.13923      19.086235      235.22547      1.0605243      0.88358982     1.0097853      749.58627    
     35400   1.0561325      205.94584      16.92846       222.8743       1.0105337      0.77921831     0.89934126     750.40225    
     35500   1.0198138      198.8637       16.549328      215.41302      0.9734442      0.76312352     0.87886648     746.09681    
     35600   1.0394145      202.68583      19.589803      222.27563      0.98384719     0.89688572     1.0131683      735.97812    
     35700   1.1295716      220.26647      24.307592      244.57406      1.0554923      1.0263663      1.1488156      726.77264    
     35800   1.1678312      227.72708      23.387147      251.11423      1.0812289      0.99254115     1.1154038      724.98038    
     35900   1.03631        202.08045      18.640464      220.72092      0.95711564     0.85222318     0.95972788     728.84655    
     36000   1.0118841      197.31739      16.958387      214.27578      0.93628652     0.80256545     0.90788966     731.21425    
     36100   1.0938588      213.30247      20.892235      234.19471      1.0159593      0.88879636     1.0044699      729.4115     
     36200   1.1168645      217.78858      26.79602       244.5846       1.0447707      0.98058522     1.1019479      727.81258    
     36300   1.0652638      207.72643      26.846857      234.57329      1.0073857      0.95716899     1.0767392      731.26537    
     36400   1.0404945      202.89643      20.78574       223.68217      0.99402051     0.82001631     0.9396046      738.79788    
     36500   1.0422289      203.23463      15.054723      218.28935      1.0020726      0.72060087     0.84210362     743.79084    
     36600   1.0519533      205.13089      13.117063      218.24795      1.013671       0.71553318     0.83959193     740.57426    
     36700   1.0143269      197.79374      16.324231      214.11797      0.97521999     0.82881548     0.94948458     728.8172     
     36800   0.98156986     191.40612      22.29596       213.70208      0.94041647     1.0146712      1.1324207      714.53314    
     36900   1.0474645      204.25558      23.279902      227.53549      1.0030131      1.1095537      1.2363547      706.83398    
     37000   1.1435622      222.99463      16.498428      239.49306      1.0996683      0.97010369     1.1097835      710.25408    
     37100   1.0390075      202.60646      9.9221825      212.52865      1.0047155      0.73250354     0.86014412     719.01246    
     37200   0.94233808     183.75593      8.3091625      192.06509      0.91213012     0.65551269     0.77124617     721.46971    
     37300   1.0189782      198.70075      12.025418      210.72616      0.98343628     0.80210103     0.92753723     713.08032    
     37400   1.0858128      211.73349      19.376894      231.11038      1.0470571      1.0298083      1.1653131      701.4824     
     37500   1.0453277      203.8389       22.828134      226.66703      1.0125306      1.0775843      1.2106909      697.43037    
     37600   0.95090469     185.42641      18.8597        204.28611      0.92939239     0.92423164     1.0478066      703.10023    
     37700   0.8470725      165.17914      13.717165      178.8963       0.83590028     0.72628302     0.83841345     711.13297    
     37800   0.94383597     184.04801      11.970921      196.01893      0.93642447     0.72052044     0.84737538     712.02869    
     37900   1.0593403      206.57137      15.366601      221.93797      1.0502134      0.84789268     0.99122976     705.61752    
     38000   1.0398158      202.76408      22.548551      225.31264      1.027247       0.97097213     1.1115528      698.66845    
     38100   0.95473067     186.17248      26.247373      212.41985      0.94269061     0.99581883     1.1250158      696.88855    
     38200   0.95882442     186.97076      21.878228      208.84899      0.95305147     0.88613854     1.0177979      700.84897    
     38300   1.1071428      215.89285      14.306186      230.19904      1.1108495      0.7721152      0.92730528     706.14085    
     38400   1.0670859      208.08175      10.839076      218.92083      1.0777455      0.67016164     0.8222818      707.97759    
     38500   0.98784171     192.62913      14.284092      206.91322      0.99857579     0.69592785     0.83843534     701.3917     
     38600   0.98202191     191.49427      22.699977      214.19425      0.98828704     0.91088879     1.0535549      687.43594    
     38700   1.0063983      196.24768      30.105003      226.35268      1.0056429      1.1092103      1.2548052      675.88692    
     38800   1.0206495      199.02666      26.02928       225.05594      1.0152212      1.0938916      1.2396143      675.48275    
     38900   0.96416067     188.01133      15.326816      203.33815      0.95830363     0.8137761      0.94917043     685.19586    
     39000   0.93765601     182.84292      10.890629      193.73355      0.93014774     0.67213635     0.80147906     693.43192    
     39100   1.0498913      204.7288       13.387497      218.1163       1.0357322      0.73452962     0.87700743     693.02525    
     39200   1.0992453      214.35283      19.344205      233.69704      1.0753714      0.88837957     1.0349935      687.04904    
     39300   1.0258992      200.05035      22.037179      222.08753      0.99731469     0.9744657      1.1095167      682.43024    
     39400   1.0036302      195.70788      18.486188      214.19407      0.97451943     0.94233173     1.0739132      682.66669    
     39500   1.0192761      198.75884      14.545843      213.30468      0.99212663     0.86321241     0.99716487     686.32005    
     39600   1.0285224      200.56188      13.410286      213.97216      1.0061061      0.82895923     0.96549172     690.14487    
     39700   1.0294469      200.74215      14.71467       215.45682      1.0139431      0.87786819     1.0169067      692.92438    
     39800   1.0391815      202.64039      16.980881      219.62127      1.0308534      0.89526928     1.0379517      696.64975    
     39900   1.0251457      199.90342      17.841517      217.74494      1.0232826      0.85602376     0.99826076     702.47807    
     40000   0.97247021     189.63169      15.639461      205.27115      0.97706082     0.77696001     0.91333989     708.66124    
     40100   0.94974128     185.19955      12.693027      197.89258      0.95943961     0.731433       0.8663243      711.06337    
     40200   1.0189321      198.69176      12.455854      211.14762      1.0327213      0.78675177     0.93367172     707.15773    
     40300   1.0823762      211.06336      16.787963      227.85133      1.0976177      0.90645938     1.0644159      699.80422    
     40400   0.94926414     185.10651      22.722002      207.82851      0.96421789     0.94532071     1.0855699      694.5446     
     40500   0.90126129     175.74595      24.794571      200.54052      0.92088236     0.93926868     1.0749822      693.17037    
     40600   0.96752138     188.66667      21.504504      210.17117      0.99577703     0.9099333      1.0581424      695.61184    
     40700   0.9979462      194.59951      16.395957      210.99547      1.0325302      0.80857962     0.96250673     701.18803    
     40800   0.9691358      188.98148      13.561158      202.54264      1.0048535      0.72005738     0.86944975     705.7964     
     40900   0.9401357      183.32646      14.124149      197.45061      0.971801       0.72159265     0.86549936     704.70121    
     41000   0.92477526     180.33118      17.806999      198.13818      0.94653931     0.82605414     0.9652958      696.66535    
     41100   0.97198229     189.53655      23.480097      213.01664      0.98057083     1.0239835      1.1664646      686.20136    
     41200   1.0646802      207.61264      24.521497      232.13414      1.0592072      1.1075268      1.2580667      682.44417    
     41300   1.0380062      202.41121      17.680813      220.09203      1.0269648      0.91782605     1.0605237      690.19713    
     41400   0.92777485     180.9161       11.744796      192.66089      0.91922956     0.72982585     0.85566608     702.62241    
     41500   0.95243451     185.72473      11.657299      197.38203      0.94364008     0.7268346      0.85467353     709.97005    
     41600   1.077033       210.02143      15.894013      225.91544      1.06149        0.86862725     1.0106318      711.2108     
     41700   1.0427828      203.34265      18.858349      222.201        1.0207469      0.94511019     1.07943        712.748      
     41800   0.98629061     192.32667      16.509495      208.83616      0.96234804     0.90882649     1.0336076      718.38867    
     41900   0.99506212     194.03711      11.294089      205.3312       0.97238463     0.79638811     0.92149446     726.35472    
     42000   1.1257794      219.52698      9.252946       228.77993      1.1044534      0.73003504     0.8723714      731.21077    
     42100   1.0912446      212.7927       12.541542      225.33424      1.0744495      0.76075047     0.90054421     729.79664    
     42200   0.97407468     189.94456      18.631481      208.57604      0.96264559     0.85493774     0.98235461     722.90735    
     42300   0.98654142     192.37558      24.259366      216.63494      0.97940247     1.0150163      1.1473176      714.95414    
     42400   1.0303245      200.91327      22.320921      223.23419      1.0284971      1.0415361      1.1822372      713.82809    
     42500   1.0240473      199.68923      13.663764      213.353        1.027231       0.81917713     0.95959615     721.33718    
     42600   0.90861894     177.18069      9.0453698      186.22606      0.91307917     0.61607717     0.74028273     727.43525    
     42700   0.91065478     177.57768      11.442871      189.02055      0.91202355     0.69366967     0.81796782     721.21124    
     42800   1.0513549      205.01421      23.634695      228.6489       1.0456616      1.0223923      1.1659108      706.28286    
     42900   1.0415608      203.10436      34.245845      237.3502       1.0350889      1.2187146      1.3620314      698.9875     
     43000   0.97499448     190.12392      26.139466      216.26339      0.97970871     0.99119167     1.1281072      707.96019    
     43100   0.94780448     184.82187      13.708078      198.52995      0.96424581     0.67861659     0.81366251     723.4735     
     43200   1.0463712      204.04239      9.0325859      213.07498      1.0675239      0.59561795     0.74451527     730.31618    
     43300   1.1127079      216.97803      10.425424      227.40346      1.1294623      0.6857953      0.84313938     724.23712    
     43400   0.98962675     192.97722      16.949821      209.92704      0.99547086     0.83419626     0.97313805     710.33882    
     43500   0.98723276     192.51039      24.356686      216.86707      0.98184184     1.0280586      1.1647026      696.47608    
     43600   1.028854       200.62653      22.88621       223.51274      1.0148113      1.0540022      1.1939713      690.96102    
     43700   1.0278809      200.43677      14.561114      214.99789      1.0123376      0.86227625     1.0008517      694.04873    
     43800   0.93507525     182.33967      9.7403725      192.08005      0.92095045     0.68707        0.81259231     697.07775    
     43900   0.94176655     183.64448      10.636221      194.2807       0.92572497     0.72671597     0.85329481     692.00298    
     44000   1.0951006      213.54463      17.112915      230.65754      1.0733064      1.0024934      1.1506175      681.41615    
     44100   1.0702801      208.70461      24.068464      232.77308      1.0485764      1.1467296      1.2920941      677.80147    
     44200   0.98440456     191.95889      21.429783      213.38867      0.96970517     0.9800455      1.114279       686.60001    
     44300   0.97115179     189.3746       14.465013      203.83961      0.96558475     0.7638175      0.89737207     700.40081    
     44400   1.0334238      201.51765      10.070188      211.58784      1.0346349      0.67078377     0.81407604     709.25239    
     44500   1.1268373      219.73327      9.7115826      229.44485      1.1314881      0.6760725      0.83376991     708.90656    
     44600   1.1117648      216.79413      14.190766      230.9849       1.1172726      0.81343538     0.97109807     701.28659    
     44700   0.94878421     185.01292      22.761959      207.77488      0.95453576     0.98764133     1.1242933      692.75316    
     44800   0.93417262     182.16366      27.657869      209.82153      0.94119175     1.1064045      1.2419714      690.47475    
     44900   1.0196649      198.83466      21.693338      220.528        1.0311484      0.98211943     1.1298843      699.02812    
     45000   1.0374846      202.3095       13.624051      215.93355      1.0560756      0.71676733     0.86695916     713.22548    
     45100   0.94048445     183.39447      12.240222      195.63469      0.96157232     0.64571411     0.78206894     721.2522     
     45200   0.8424071      164.26938      16.940609      181.20999      0.86184111     0.73218976     0.85502331     718.45243    
     45300   0.97877462     190.86105      24.83727       215.69832      1.0006028      0.95082875     1.0951006      709.18566    
     45400   1.0528263      205.30114      27.356503      232.65764      1.0772963      1.0571077      1.2137301      704.53994    
     45500   0.96964651     189.08107      19.770586      208.85166      0.99633448     0.89512874     1.0400812      709.50785    
     45600   0.91113849     177.672        11.641477      189.31348      0.93998086     0.71102184     0.84742868     716.55047    
     45700   0.96050698     187.29886      11.039532      198.33839      0.99011481     0.72765538     0.87108238     716.77419    
     45800   1.0703619      208.72057      16.938058      225.65863      1.1008275      0.91779613     1.077848       711.15596    
     45900   0.98987708     193.02603      22.570589      215.59662      1.0197312      1.0070299      1.1561822      709.04204    
     46000   0.85164126     166.07005      21.14197       187.21201      0.8831551      0.8840193      1.0138629      713.89281    
     46100   0.91999404     179.39884      17.772253      197.17109      0.95920646     0.77253568     0.91373417     719.89904    
     46200   1.0036204      195.70597      16.362562      212.06853      1.0465649      0.7386239      0.89228613     721.95704    
     46300   0.99949202     194.90094      16.549231      211.45017      1.0380931      0.7518687      0.90393489     718.50512    
     46400   0.9148684      178.39934      19.722557      198.12189      0.94495589     0.85658869     0.99519911     710.42815    
     46500   0.90001283     175.5025       25.538247      201.04075      0.92577228     1.0541267      1.1904099      702.57179    
     46600   1.0778084      210.17264      24.887792      235.06043      1.1089142      1.1027648      1.2657819      703.8479     
     46700   1.0358619      201.99306      17.269754      219.26282      1.0712479      0.84004573     0.99607836     717.04599    
     46800   0.92210881     179.81122      12.998603      192.80982      0.95678547     0.65140523     0.78895412     730.84504    
     46900   0.92096442     179.58806      13.812878      193.40094      0.95167001     0.65524655     0.79040637     734.32513    
     47000   1.0330724      201.44912      18.814333      220.26345      1.0577829      0.83103382     0.98017969     727.35021    
     47100   1.0605852      206.81412      25.653101      232.46722      1.075541       1.0293589      1.1798648      719.70183    
     47200   0.88885943     173.32759      25.54896       198.87655      0.89713331     0.97362711     1.0979152      720.36216    
     47300   0.90851896     177.1612       19.92167       197.08287      0.91630558     0.83480883     0.9605433      726.26336    
     47400   1.0127935      197.49473      16.196054      213.69078      1.0203725      0.76210494     0.90102569     730.44827    
     47500   1.0531433      205.36294      15.744239      221.10718      1.0585649      0.77443687     0.91805351     729.69653    
     47600   0.97440148     190.00829      19.314004      209.32229      0.97724505     0.85542264     0.98829215     724.95571    
     47700   0.9063261      176.73359      24.875363      201.60895      0.9087966      0.98475485     1.1091317      719.93934    
     47800   1.0242761      199.73383      26.552191      226.28603      1.0340548      1.0441788      1.1874851      720.44421    
     47900   1.0628258      207.25104      20.362889      227.61393      1.0885171      0.89538295     1.0483665      730.0424     
     48000   0.9512592      185.49554      12.740881      198.23642      0.99056903     0.66266747     0.80376773     742.31742    
     48100   0.90435102     176.34845      9.4711494      185.8196       0.95165554     0.59488883     0.73247851     744.87141    
     48200   0.96503912     188.18263      11.862177      200.0448       1.0178312      0.74226508     0.89228192     733.53051    
     48300   1.0845955      211.49612      19.892314      231.38843      1.1412087      1.033524       1.2047966      717.44117    
     48400   0.97375673     189.88256      21.654035      211.5366       1.024132       1.0579366      1.2128503      711.28741    
     48500   0.89872914     175.25218      14.684924      189.93711      0.94919815     0.81247022     0.95631936     715.07468    
     48600   0.94035518     183.36926      10.744208      194.11347      0.99424845     0.68726252     0.83777603     717.1817     
     48700   1.0088297      196.7218       13.486203      210.208        1.0607046      0.79839369     0.95855086     712.20442    
     48800   0.96893138     188.94162      21.599017      210.54064      1.0110933      0.98252955     1.1345525      705.87151    
     48900   0.84257677     164.30247      26.840401      191.14287      0.8777462      1.0389156      1.1704674      706.0118     
     49000   0.89172924     173.8872       24.253688      198.14089      0.934662       0.95876341     1.0987202      714.28284    
     49100   0.94530262     184.33401      18.458174      202.79218      1.0006324      0.81468223     0.96439831     727.05131    
     49200   0.94488113     184.25182      15.266473      199.51829      1.0076511      0.68800184     0.83855933     737.19323    
     49300   0.94669297     184.60513      16.366239      200.97137      1.0089382      0.72138985     0.87164809     738.81983    
     49400   0.94485759     184.24723      20.655312      204.90254      0.99915499     0.85307848     1.0009119      733.96907    
     49500   0.93156951     181.65605      24.497241      206.1533       0.97358059     0.95958018     1.1015826      729.58655    
     49600   0.94479683     184.23538      22.374575      206.60996      0.97954715     0.94783218     1.0885101      730.54786    
     49700   1.0088559      196.7269       15.911125      212.63802      1.0449027      0.8353777      0.98410545     735.77121    
     49800   1.0202278      198.94443      12.036672      210.9811       1.0595547      0.71099934     0.86173726     739.7282     
     49900   0.90204866     175.89949      14.53754       190.43703      0.93658834     0.73539061     0.86910584     736.79639    
     50000   0.8935146      174.23535      20.908815      195.14416      0.92269832     0.88157873     1.0136046      728.00305    
     50100   1.0055628      196.08475      25.566443      221.6512       1.0310799      1.0090265      1.1561082      720.83511    
     50200   1.0250054      199.87605      23.274205      223.15026      1.0453953      0.95529835     1.1028211      721.41262    
     50300   0.98447659     191.97293      17.842763      209.8157       1.0014778      0.79828725     0.93789312     726.76078    
     50400   0.95503053     186.23095      15.368395      201.59935      0.96924171     0.74247086     0.87656858     728.99723    
     50500   0.98375412     191.83205      17.2623        209.09435      0.99409441     0.82290702     0.95999854     725.3374     
     50600   1.1035522      215.19269      22.114775      237.30746      1.110323       0.96652728     1.1194031      720.4016     
     50700   1.045695       203.91052      25.246684      229.1572       1.050692       0.97026821     1.1144002      721.16019    
     50800   0.92432078     180.24255      23.893265      204.13582      0.92796726     0.85632221     0.98235731     727.19312    
     50900   0.96021354     187.24164      21.298979      208.54062      0.96098306     0.79146474     0.92025497     732.40334    
     51000   1.033437       201.52022      19.621003      221.14122      1.0284513      0.78873971     0.92481368     733.54237    
     51100   1.0438191      203.54472      19.211277      222.75599      1.0316538      0.84463044     0.9796835      731.04495    
     51200   1.0055064      196.07375      20.549786      216.62354      0.98621154     0.90465222     1.0322992      727.68044    
     51300   0.98782524     192.62592      21.943714      214.56964      0.96213815     0.92276423     1.045729       726.06604    
     51400   1.0889671      212.34859      21.345946      233.69453      1.0557784      0.94353554     1.0769262      727.14601    
     51500   1.1376237      221.83663      18.12167       239.9583       1.1015237      0.85776754     0.99566656     731.76612    
     51600   1.0026098      195.50891      16.475354      211.98427      0.97094545     0.74613408     0.86704095     735.92267    
     51700   0.96358692     187.89945      19.369345      207.26879      0.93120448     0.77038477     0.8861768      733.58645    
     51800   1.0639695      207.47406      24.873571      232.34763      1.0232867      0.90022765     1.0274576      725.84283    
     51900   1.1324497      220.8277       27.154494      247.9822       1.0836008      1.0313133      1.1655627      720.05805    
     52000   1.033498       201.53211      22.137034      223.66914      0.98667631     0.95703395     1.0782873      722.15762    
     52100   0.99165951     193.3736       15.154315      208.52792      0.94674246     0.80001423     0.91540733     728.13656    
     52200   1.0377075      202.35297      12.505176      214.85814      0.99051254     0.71153083     0.83190835     729.93032    
     52300   1.0937668      213.28452      15.448332      228.73285      1.0430473      0.79688616     0.92446687     723.68587    
     52400   1.0667446      208.0152       22.282174      230.29737      1.01909        0.96445172     1.0913334      713.87923    
     52500   0.94705762     184.67624      26.980665      211.6569       0.91201708     1.0521992      1.1686988      708.54121    
     52600   0.95532107     186.28761      25.4991        211.78671      0.92890011     0.99929899     1.1200194      711.39708    
     52700   1.0884331      212.24446      20.331209      232.57567      1.065604       0.86286224     1.0016524      720.35008    
     52800   1.0487116      204.49876      15.274571      219.77333      1.0311559      0.73125405     0.86510945     729.36854    
     52900   0.9830121      191.68736      13.410484      205.09784      0.96720283     0.68741897     0.81278301     731.49418    
     53000   0.97805655     190.72103      17.58114       208.30217      0.95978598     0.82736194     0.95223727     724.6929     
     53100   1.0959348      213.70729      26.786182      240.49347      1.0705901      1.0616407      1.2012472      716.12454    
     53200   1.1342026      221.16951      29.354675      250.52419      1.1050316      1.1368647      1.2798572      717.55321    
     53300   0.98691139     192.44772      19.911478      212.3592       0.96366435     0.86652204     0.98940094     731.66295    
     53400   0.9717812      189.49733      11.748336      201.24567      0.95277469     0.65801005     0.77833915     745.17016    
     53500   1.031626       201.16707      9.8519272      211.019        1.0109838      0.6467985      0.7740857      746.74574    
     53600   1.0761809      209.85528      14.87301       224.72829      1.046819       0.81838197     0.94977865     737.17766    
     53700   1.0002922      195.05699      23.517797      218.57478      0.96355893     1.0095726      1.1297219      726.31085    
     53800   0.91395182     178.22061      26.140296      204.3609       0.87587973     1.0592619      1.1677467      722.79404    
     53900   1.0167082      198.2581       19.842099      218.1002       0.97672901     0.92530409     1.0461696      727.44904    
     54000   1.0630734      207.29931      13.026239      220.32555      1.0264807      0.77552077     0.90285569     733.96623    
     54100   1.0405811      202.91332      11.878673      214.792        1.0065601      0.68869965     0.81388963     734.95336    
     54200   1.000957       195.18662      17.189791      212.37641      0.96561136     0.7670106      0.88765544     727.23793    
     54300   1.000236       195.04603      24.997687      220.04371      0.96084317     0.93138024     1.0522488      715.49617    
     54400   1.0989484      214.29494      29.261057      243.556        1.0541823      1.0659937      1.1995392      708.22665    
     54500   1.1265994      219.68688      24.440987      244.12787      1.0860017      0.97038895     1.1090344      710.52909    
     54600   0.98391253     191.86294      16.95893       208.82187      0.95732464     0.7908721      0.91441268     717.44176    
     54700   0.96465754     188.10822      13.594637      201.70286      0.94546979     0.71210641     0.83563087     719.8123     
     54800   1.0264716      200.16196      15.90823       216.07019      1.0090739      0.81706305     0.95066947     714.76127    
     54900   1.0473454      204.23235      21.095201      225.32755      1.0320436      0.96766265     1.1062678      708.17318    
     55000   1.0109139      197.12821      22.750038      219.87825      1.0008472      0.9894479      1.1254146      706.93807    
     55100   0.98984358     193.0195       19.021558      212.04106      0.9873768      0.86744171     1.0028023      711.29936    
     55200   0.99423396     193.87562      15.321956      209.19758      0.99678734     0.76567148     0.90288112     715.56976    
     55300   1.0077231      196.506        14.657109      211.16311      1.0108866      0.78232794     0.92169719     715.24933    
     55400   1.0044366      195.86514      16.862523      212.72766      1.0061318      0.87433346     1.013402       711.38652    
     55500   0.95270886     185.77823      19.924162      205.70239      0.95371581     0.9673073      1.0995082      708.47087    
     55600   0.93151088     181.64462      20.208143      201.85277      0.93472061     0.97252473     1.1023509      710.3999     
     55700   1.0362504      202.06883      16.26595       218.33478      1.0453038      0.8690718      1.0143722      717.17034    
     55800   1.0532852      205.39062      12.250169      217.64079      1.0693341      0.73906869     0.88806106     724.36106    
     55900   0.95670292     186.55707      11.247777      197.80485      0.97627492     0.723393       0.86039952     726.18064    
     56000   0.92966017     181.28373      14.334475      195.61821      0.94867179     0.85633697     0.99035284     721.38546    
     56100   0.9617901      187.54907      19.889903      207.43897      0.97803277     1.0097162      1.1479271      716.40139    
     56200   0.9853585      192.14491      20.313145      212.45805      1.0001007      0.99710489     1.1375152      718.49864    
     56300   0.9996228      194.92645      15.446702      210.37315      1.0173929      0.82323728     0.96512317     727.13133    
     56400   0.99751314     194.51506      11.939922      206.45499      1.0198744      0.70260736     0.84463047     734.44478    
     56500   0.957203       186.65459      12.112306      198.76689      0.98145086     0.67955218     0.81707347     733.78108    
     56600   0.92338533     180.06014      16.727485      196.78762      0.94579387     0.81514977     0.94916621     724.22061    
     56700   0.98512894     192.10014      23.117503      215.21765      1.004256       1.0361348      1.1794079      712.95222    
     56800   1.0790925      210.42304      22.010778      232.43381      1.0968175      1.1002034      1.2562806      710.83086    
     56900   0.97970277     191.04204      13.489847      204.53189      0.9968195      0.8505939      0.99088272     720.12919    
     57000   0.88992202     173.53479      9.0679787      182.60277      0.90745525     0.67515188     0.80183671     728.97122    
     57100   0.95217559     185.67424      10.85525       196.52949      0.97087245     0.69739593     0.83310196     727.98086    
     57200   1.0143801      197.80412      16.946699      214.75082      1.0312202      0.87567331     1.0207063      719.44621    
     57300   1.0019531      195.38085      24.748054      220.12891      1.0138344      1.0343514      1.176947       713.0135     
     57400   0.93693036     182.70142      27.286671      209.98809      0.94492629     0.9948619      1.1265199      715.20122    
     57500   0.87106237     169.85716      24.277661      194.13482      0.87980456     0.84151469     0.96317788     722.69659    
     57600   0.9806358      191.22398      20.234352      211.45833      0.99603165     0.77008724     0.90832502     727.82773    
     57700   1.0516489      205.07153      18.246646      223.31818      1.0751555      0.75376629     0.90483808     727.79326    
     57800   0.97717591     190.5493       20.042089      210.59139      1.0032634      0.78735006     0.93030885     723.33337    
[...]
   2385900   0.8646151      168.59994      162.43777      331.03771      0.88451736     9.8499426      10.0933        372.14237    
   2386000   0.84223205     164.23525      162.96138      327.19663      0.88273056     9.752765       10.006444      372.14237    
   2386100   0.84588729     164.94802      158.86336      323.81138      0.89671702     9.5777043      9.8404803      372.14237    
   2386200   0.88138867     171.87079      149.32841      321.19921      0.92925928     9.2704545      9.5402495      372.14237    
   2386300   0.91661578     178.74008      142.76737      321.50744      0.95165189     9.0547871      9.3237538      372.14237    
   2386400   0.93057613     181.46234      143.82378      325.28612      0.94804642     9.1848722      9.4436851      372.14237    
   2386500   0.9274005      180.8431       150.74858      331.59167      0.92441237     9.3864661      9.6283352      372.14237    
   2386600   0.92546445     180.46557      158.53631      339.00188      0.89783339     9.5340766      9.7560336      372.14237    
   2386700   0.94114811     183.52388      160.31708      343.84096      0.89175565     9.5900327      9.7989864      372.14237    
   2386800   0.96646966     188.46158      156.28061      344.74219      0.90553188     9.4308897      9.6374216      372.14237    
   2386900   0.97876849     190.85986      151.01753      341.87739      0.92349441     9.2301873      9.4444172      372.14237    
   2387000   0.95483511     186.19285      151.54652      337.73936      0.92168906     9.0829244      9.3082738      372.14237    
   2387100   0.90786844     177.03435      156.28038      333.31473      0.90553272     9.0211712      9.2584104      372.14237    
   2387200   0.87384132     170.39906      156.58016      326.97922      0.90450967     9.0036738      9.2579375      372.14237    
   2387300   0.87316194     170.26658      149.03757      319.30415      0.930252       8.9050238      9.1799113      372.14237    
   2387400   0.88393917     172.36814      143.34524      315.71337      0.94967964     8.9293618      9.2138981      372.14237    
   2387500   0.8789827      171.40163      145.64951      317.05114      0.94181537     9.1844647      9.4654063      372.14237    
   2387600   0.86578954     168.82896      151.52813      320.35709      0.92175202     9.5249569      9.7970151      372.14237    
   2387700   0.86458462     168.594        154.23545      322.82945      0.91251202     9.7080106      9.9734252      372.14237    
   2387800   0.8754492      170.71259      152.2922       323.0048       0.91914423     9.5933174      9.8582608      372.14237    
   2387900   0.88727242     173.01812      148.02206      321.04018      0.93371803     9.349717       9.6199395      372.14237    
   2388000   0.89774525     175.06032      145.39185      320.45217      0.9426948      9.0993244      9.3711269      372.14237    
   2388100   0.90844533     177.14684      145.81171      322.95854      0.94126201     8.9296346      9.1947023      372.14237    
   2388200   0.92448702     180.27497      144.94449      325.21946      0.94422181     8.9172117      9.1762041      372.14237    
   2388300   0.93728295     182.77017      142.2771       325.04727      0.95332541     8.8836957      9.1431506      372.14237    
   2388400   0.92867389     181.09141      141.9473       323.03871      0.95445096     8.7977667      9.0626189      372.14237    
   2388500   0.90313552     176.11143      144.60298      320.71441      0.94538718     8.8664639      9.1375618      372.14237    
   2388600   0.87352415     170.33721      149.26436      319.60157      0.92947806     9.0924312      9.3665195      372.14237    
   2388700   0.85087893     165.92139      154.95689      320.87828      0.91004971     9.2472899      9.5179475      372.14237    
   2388800   0.83862684     163.53223      161.87375      325.40599      0.88644263     9.5615449      9.8200359      372.14237    
   2388900   0.8339998      162.62996      169.02699      331.65695      0.8620289      10.121828      10.363522      372.14237    
   2389000   0.8370481      163.22438      173.5111       336.73548      0.84672487     10.418568      10.646615      372.14237    
   2389100   0.85059345     165.86572      172.6579       338.52362      0.84963665     10.456247      10.679489      372.14237    
   2389200   0.86710649     169.08576      171.83462      340.92039      0.85244654     10.37087       10.587672      372.14237    
   2389300   0.88910257     173.375        170.25496      343.62996      0.85783792     10.18195       10.391471      372.14237    
   2389400   0.91941325     179.28558      165.46675      344.75233      0.87418007     9.8441685      10.050673      372.14237    
   2389500   0.95271497     185.77942      157.50094      343.28036      0.9013669      9.5094966      9.7199566      372.14237    
   2389600   0.97200167     189.54033      152.04671      341.58703      0.91998214     9.3282945      9.5433048      372.14237    
   2389700   0.97986629     191.07393      149.41116      340.48509      0.92897704     9.165075       9.3830463      372.14237    
   2389800   0.97224027     189.58685      150.42261      340.00946      0.92552502     9.0884505      9.3076999      372.14237    
   2389900   0.95214216     185.66772      154.51898      340.1867       0.91154429     9.0692816      9.2880548      372.14237    
   2390000   0.93040253     181.42849      159.92937      341.35787      0.89307896     9.2367012      9.4523274      372.14237    
   2390100   0.92555972     180.48415      162.05765      342.5418       0.88581513     9.5194353      9.73188        372.14237    
   2390200   0.92948571     181.24971      161.76711      343.01682      0.8868066      9.8196631      10.030831      372.14237    
   2390300   0.92393846     180.168        164.54552      344.71352      0.87732394     9.9911406      10.197749      372.14237    
   2390400   0.89716874     174.9479       172.08558      347.03349      0.85159012     10.172998      10.373373      372.14237    
   2390500   0.86458427     168.59393      178.39586      346.98979      0.83005358     10.336731      10.537223      372.14237    
   2390600   0.85167732     166.07708      176.71094      342.78801      0.83580413     10.257301      10.469084      372.14237    
   2390700   0.8609207      167.87954      168.70322      336.58276      0.86313406     10.057502      10.28596       372.14237    
   2390800   0.87809614     171.22875      160.65411      331.88286      0.8906053      9.8632368      10.104324      372.14237    
   2390900   0.88914295     173.38288      157.05352      330.4364       0.90289403     9.8457156      10.090689      372.14237    
   2391000   0.88409397     172.39832      159.07784      331.47616      0.89598513     9.9634593      10.205639      372.14237    
   2391100   0.86916565     169.4873       164.46085      333.94815      0.87761313     10.084681      10.320218      372.14237    
   2391200   0.85508153     166.7409       169.81514      336.55604      0.85933919     10.144789      10.373319      372.14237    
   2391300   0.85084593     165.91496      172.45848      338.37343      0.85031757     10.127937      10.351583      372.14237    
   2391400   0.86080003     167.85601      171.35006      339.20606      0.85410062     10.035655      10.257063      372.14237    
   2391500   0.88145737     171.88419      167.61782      339.502        0.86683865     9.9717058      10.192319      372.14237    
   2391600   0.90071592     175.6396       162.4591       338.0987       0.88444516     9.9481735      10.172558      372.14237    
   2391700   0.90764515     176.9908       156.42314      333.41395      0.90504566     9.8395216      10.076494      372.14237    
   2391800   0.90418068     176.31523      152.08038      328.39562      0.91986725     9.5920317      9.8424893      372.14237    
   2391900   0.89771366     175.05416      151.72883      326.78299      0.92106733     9.5246327      9.7794239      372.14237    
   2392000   0.9045584      176.38889      151.01842      327.40731      0.92349194     9.4884706      9.741584       372.14237    
   2392100   0.92817386     180.9939       147.9409       328.93481      0.93399532     9.4046519      9.6536607      372.14237    
   2392200   0.95975664     187.15254      144.52733      331.67987      0.94564583     9.2947668      9.5363993      372.14237    
   2392300   0.99176406     193.39399      140.82661      334.2206       0.95827621     9.1913478      9.4261529      372.14237    
   2392400   1.0090779      196.77019      138.05106      334.82126      0.96774893     8.9895426      9.2227336      372.14237    
   2392500   0.99904619     194.81401      139.14661      333.96062      0.96401006     8.8452887      9.0807925      372.14237    
   2392600   0.98162102     191.4161       139.66006      331.07615      0.96225774     8.7328023      8.9760572      372.14237    
   2392700   0.96735252     188.63374      137.4353       326.06905      0.96985065     8.5268883      8.7835979      372.14237    
   2392800   0.95283383     185.8026       136.5906       322.3932       0.9727336      8.4686887      8.7352758      372.14237    
   2392900   0.93997573     183.29527      138.80165      322.09692      0.96518725     8.7136614      8.9810445      372.14237    
   2393000   0.91719128     178.8523       146.51406      325.36636      0.93886495     9.3275071      9.5861047      372.14237    
   2393100   0.86721205     169.10635      160.02511      329.13146      0.89275237     9.6679942      9.9164747      372.14237    
   2393200   0.81641358     159.20065      171.8784       331.07905      0.85229752     9.9479816      10.191229      372.14237    
   2393300   0.80163485     156.31879      176.49135      332.81015      0.83655378     10.138729      10.377325      372.14237    
   2393400   0.83860628     163.52822      170.81948      334.3477       0.85591147     10.262423      10.496887      372.14237    
   2393500   0.89474735     174.47573      161.42781      335.90355      0.88796477     10.072868      10.30315       372.14237    
   2393600   0.9334103      182.01501      154.51042      336.52543      0.91157369     9.8314223      10.060034      372.14237    
   2393700   0.94431087     184.14062      151.03273      335.17335      0.92344308     9.5799681      9.8122131      372.14237    
   2393800   0.94486526     184.24872      148.14642      332.39514      0.93329378     9.5720644      9.8117747      372.14237    
   2393900   0.92817683     180.99448      149.63314      330.62762      0.92821956     9.4948892      9.739349       372.14237    
   2394000   0.88816352     173.19189      157.63         330.82189      0.90092682     9.4990882      9.7430262      372.14237    
   2394100   0.85990358     167.6812       162.74852      330.42972      0.88345761     9.5612835      9.8062755      372.14237    
   2394200   0.8595064      167.60375      160.82451      328.42826      0.89002403     9.5998958      9.8502658      372.14237    
   2394300   0.87045213     169.73816      157.08104      326.81921      0.90280019     9.6989328      9.9536265      372.14237    
   2394400   0.88121709     171.83733      155.17616      327.01349      0.90930142     9.6981509      9.9523224      372.14237    
   2394500   0.88719532     173.00309      155.20072      328.20381      0.90921767     9.7480222      9.9989952      372.14237    
   2394600   0.89054592     173.65645      155.50841      329.16486      0.90816746     9.6404777      9.8888682      372.14237    
   2394700   0.89511857     174.54812      155.39254      329.94066      0.90856308     9.4705924      9.7168983      372.14237    
   2394800   0.90933116     177.31958      152.1436       329.46317      0.91965161     9.2165658      9.4641548      372.14237    
   2394900   0.9264836      180.6643       147.59837      328.26267      0.93516418     9.1556888      9.4065036      372.14237    
   2395000   0.92321215     180.02637      146.80575      326.83212      0.93786945     9.2642069      9.5188658      372.14237    
   2395100   0.89846574     175.20082      149.73008      324.9309       0.92788868     9.1952388      9.4550065      372.14237    
   2395200   0.86165515     168.02276      156.93892      324.96167      0.90328527     9.2681448      9.5278299      372.14237    
   2395300   0.83554763     162.93179      163.51673      326.44852      0.88083542     9.2971032      9.552793       372.14237    
   2395400   0.83911145     163.62673      166.39935      330.02609      0.87099711     9.2599678      9.5060441      372.14237    
   2395500   0.87369672     170.37086      164.21242      334.58328      0.87846112     9.3357651      9.5695956      372.14237    
   2395600   0.92989654     181.32982      157.36519      338.69501      0.90183035     9.4553746      9.6781562      372.14237    
   2395700   0.98074732     191.24573      150.6648       341.91052      0.92469857     9.4538574      9.6679984      372.14237    
   2395800   1.0088203      196.71996      145.8884       342.60836      0.94100017     9.3050656      9.5173314      372.14237    
   2395900   1.0088465      196.72507      144.26292      340.98799      0.94654793     9.0403867      9.2570067      372.14237    
   2396000   0.99190102     193.4207       144.11941      337.54011      0.94703774     8.9281567      9.1540417      372.14237    
   2396100   0.96700613     188.5662       146.29977      334.86597      0.93959622     9.115892       9.3489627      372.14237    
   2396200   0.93734529     182.78233      152.74935      335.53168      0.91758408     9.386175       9.6174569      372.14237    
   2396300   0.91083447     177.61272      159.35784      336.97057      0.89502956     9.684382       9.9117975      372.14237    
   2396400   0.89737888     174.98888      160.86752      335.8564       0.88987708     9.8710098      10.101419      372.14237    
   2396500   0.89412285     174.35396      157.7925       332.14646      0.90037182     9.7731262      10.013505      372.14237    
   2396600   0.88442563     172.463        155.83953      328.30253      0.90703731     9.634768       9.8854757      372.14237    
   2396700   0.86894613     169.4445       155.44943      324.89393      0.90836868     9.4567375      9.7166045      372.14237    
   2396800   0.85986892     167.67444      154.47647      322.15091      0.91168962     9.3694615      9.6366996      372.14237    
   2396900   0.87369227     170.36999      147.11787      317.48786      0.93680416     9.1437513      9.4235196      372.14237    
   2397000   0.90045578     175.58888      136.6983       312.28718      0.97236556     8.8254666      9.1192096      372.14237    
   2397100   0.91588055     178.59671      132.25491      310.85162      0.98753065     8.7845788      9.0821793      372.14237    
   2397200   0.90843559     177.14494      138.24528      315.39022      0.96708581     8.9674523      9.252857       372.14237    
   2397300   0.88778646     173.11836      150.29753      323.41589      0.92595206     9.37767        9.6415088      372.14237    
   2397400   0.87492465     170.61031      159.5651       330.1754       0.89432218     9.6208429      9.8665179      372.14237    
   2397500   0.87136169     169.91553      163.87725      333.79278      0.87960479     9.8451464      10.081101      372.14237    
   2397600   0.87103448     169.85172      166.02206      335.87379      0.87228453     9.9499102      10.180273      372.14237    
   2397700   0.870354       169.71903      168.24094      337.95997      0.86471162     10.051429      10.276185      372.14237    
   2397800   0.87325986     170.28567      169.70544      339.99111      0.85971338     10.040829      10.260127      372.14237    
   2397900   0.87623941     170.86669      169.18215      340.04883      0.86149942     9.9995828      10.218726      372.14237    
   2398000   0.88495856     172.56692      164.9993       337.56622      0.87577532     9.9461532      10.171968      372.14237    
   2398100   0.89688515     174.8926       158.58847      333.48107      0.89765537     9.6746871      9.9114793      372.14237    
   2398200   0.91263081     177.96301      151.55178      329.51479      0.92167104     9.5275992      9.7750491      372.14237    
   2398300   0.91715143     178.84453      151.67728      330.52181      0.92124278     9.550649       9.7953929      372.14237    
   2398400   0.91102323     177.64953      157.13876      334.78829      0.90260319     9.5812432      9.8145228      372.14237    
   2398500   0.91061765     177.57044      159.57537      337.14581      0.89428705     9.6537687      9.8807132      372.14237    
   2398600   0.91769914     178.95133      158.21221      337.16354      0.89893947     9.5555166      9.7824135      372.14237    
   2398700   0.92860205     181.0774       154.29522      335.37262      0.91230795     9.4037677      9.635477       372.14237    
   2398800   0.94324129     183.93205      149.4068       333.33885      0.92899181     9.2935911      9.5307652      372.14237    
   2398900   0.9492719      185.10802      148.71769      333.82571      0.93134379     9.3032453      9.5391112      372.14237    
   2399000   0.94091887     183.47918      153.43609      336.91527      0.91524009     9.442307       9.6698709      372.14237    
   2399100   0.92512604     180.39958      157.89143      338.29101      0.9000343      9.5126588      9.736526       372.14237    
   2399200   0.91243054     177.92396      157.79144      335.71539      0.90037551     9.6151521      9.8459403      372.14237    
   2399300   0.9047885      176.43376      155.97818      332.41193      0.90656408     9.6086343      9.8482994      372.14237    
   2399400   0.90526206     176.5261       153.46344      329.98954      0.91514678     9.5209638      9.7671382      372.14237    
   2399500   0.90160389     175.81276      152.08726      327.90001      0.91984346     9.4350994      9.6868885      372.14237    
   2399600   0.87550185     170.72286      156.57804      327.3009       0.90451667     9.5663716      9.8197706      372.14237    
   2399700   0.84326872     164.4374       161.86736      326.30476      0.88646461     9.8186274      10.074703      372.14237    
   2399800   0.83078018     162.00214      161.11827      323.1204       0.88902104     9.9298819      10.194515      372.14237    
   2399900   0.83014907     161.87907      159.13418      321.01325      0.89579255     9.8887841      10.159079      372.14237    
   2400000   0.82924423     161.70262      159.75259      321.45522      0.89368188     9.8623886      10.131496      372.14237    
Loop time of 71.8994 on 4 procs for 200000 steps with 196 atoms

Performance: 24033.566 tau/day, 2781.663 timesteps/s, 545.206 katom-step/s
100.0% CPU use with 4 MPI tasks x 1 OpenMP threads

MPI task timing breakdown:
Section |  min time  |  avg time  |  max time  |%varavg| %total
---------------------------------------------------------------
Pair    | 23.88      | 24.691     | 25.946     |  16.8 | 34.34
Neigh   | 0.00052142 | 0.00054431 | 0.00056789 |   0.0 |  0.00
Comm    | 18.69      | 20.179     | 21.215     |  20.9 | 28.07
Output  | 0.6135     | 0.64786    | 0.67339    |   2.7 |  0.90
Modify  | 25.164     | 25.537     | 26.015     |   6.6 | 35.52
Other   |            | 0.8435     |            |       |  1.17

Nlocal:             49 ave          51 max          46 min
Histogram: 1 0 0 0 1 0 0 0 0 2
Nghost:         552.25 ave         560 max         545 min
Histogram: 1 0 0 0 1 1 0 0 0 1
Neighs:         189.75 ave         204 max         174 min
Histogram: 1 0 0 0 0 2 0 0 0 1

Total # of neighbors = 759
Ave neighs/atom = 3.872449
Neighbor list builds = 18
Dangerous builds = 0
unfix 1
undump mydump
unfix 1rdf
Total wall time: 0:09:35
