LAMMPS (2 Aug 2023 - Update 1)
OMP_NUM_THREADS environment is not set. Defaulting to 1 thread. (src/comm.cpp:98)
  using 1 OpenMP thread(s) per MPI task
# 3d rounded 3d

variable    r     index 5
variable    steps index 100000

units       lj
dimension   3
newton on

neighbor     1.0 bin
neigh_modify every 1 delay 0 check yes

atom_style  body rounded/polyhedron 1 20

read_data   data.3d
Reading data file ...
  orthogonal box = (-1.59 -1.59 -1.59) to (1.59 1.59 1.59)
  1 by 2 by 2 MPI processor grid
  reading atoms ...
  1 atoms
  1 bodies
  read_data CPU = 0.003 seconds

replicate   $r $r $r
replicate   5 $r $r
replicate   5 5 $r
replicate   5 5 5
Replication is creating a 5x5x5 = 125 times larger system...
  orthogonal box = (-1.59 -1.59 -1.59) to (14.31 14.31 14.31)
  1 by 2 by 2 MPI processor grid
  125 atoms
  replicate CPU = 0.002 seconds

change_box all x final -7.95 7.95 y final -7.95 7.95 z final -7.95 7.95
Changing box ...
  orthogonal box = (-7.95 -1.59 -1.59) to (7.95 14.31 14.31)
  orthogonal box = (-7.95 -7.95 -1.59) to (7.95 7.95 14.31)
  orthogonal box = (-7.95 -7.95 -7.95) to (7.95 7.95 7.95)

velocity all create 1.5 64 rot yes dist gaussian
set atom * quat/random 4325
Setting atom values ...
  125 settings made for quat/random

variable cut_inner  equal 0.0
variable k_n        equal 100000
variable k_na       equal 0
variable c_n        equal 0
variable c_t        equal 0
variable mu         equal 0
variable A_ua       equal 1

pair_style body/rounded/polyhedron ${c_n} ${c_t} ${mu} ${A_ua} ${cut_inner}
pair_style body/rounded/polyhedron 0 ${c_t} ${mu} ${A_ua} ${cut_inner}
pair_style body/rounded/polyhedron 0 0 ${mu} ${A_ua} ${cut_inner}
pair_style body/rounded/polyhedron 0 0 0 ${A_ua} ${cut_inner}
pair_style body/rounded/polyhedron 0 0 0 1 ${cut_inner}
pair_style body/rounded/polyhedron 0 0 0 1 0
pair_coeff * * ${k_n} ${k_na}
pair_coeff * * 100000 ${k_na}
pair_coeff * * 100000 0

comm_modify vel yes

timestep     0.0001

compute 1 all temp/body
compute 1p all pressure 1

thermo_style custom step temp ke pe etotal c_1 press c_1p c_1p[1] c_1p[2] c_1p[3] vol

thermo       100
thermo_modify norm no

compute 10 all property/atom x y z quatw quati quatj quatk
dump mydump all custom 100 dump.quat id c_10[1] c_10[2] c_10[3] c_10[4] c_10[5] c_10[6] c_10[7]


fix def all deform 200000 x scale 0.95 y scale 0.95 z scale 0.95

fix          1 all nvt/body temp 0.75 0.75 0.01

variable i loop 10

label loop_start
    run          100000
Generated 0 of 0 mixed pair_coeff terms from geometric mixing rule
Neighbor list info ...
  update: every = 1 steps, delay = 0 steps, check = yes
  max neighbors/atom: 2000, page size: 100000
  master list distance cutoff = 3
  ghost atom cutoff = 3
  binsize = 1.5, bins = 11 11 11
  1 neighbor lists, perpetual/occasional/extra = 1 0 0
  (1) pair body/rounded/polyhedron, perpetual
      attributes: half, newton on
      pair build: half/bin/atomonly/newton
      stencil: half/bin/3d
      bin: standard
Per MPI rank memory allocation (min/avg/max) = 6.662 | 6.679 | 6.695 Mbytes
   Step          Temp          KinEng         PotEng         TotEng          c_1           Press           c_1p         c_1p[1]        c_1p[2]        c_1p[3]         Volume    
         0   1.5            279            0              279            0.74698795     0.046272352    0.046272352    0.044966698    0.039397094    0.054453262    4019.679     
       100   1.5061797      280.14943      0              280.14943      0.7500654      0.046462985    0.046462985    0.045151953    0.039559402    0.054677599    4019.679     
       200   1.5303243      284.64033      0              284.64033      0.76208923     0.047207804    0.047207804    0.045875756    0.040193555    0.055554102    4019.679     
       300   1.5465237      287.65341      0              287.65341      0.77015639     0.047707526    0.047707526    0.046361377    0.040619027    0.056142175    4019.679     
       400   1.4833513      275.90334      0              275.90334      0.73869702     0.045758768    0.045758768    0.044467607    0.03895982     0.053848878    4019.679     
       500   1.425286       265.1032       0              265.1032       0.709781       0.043967558    0.043967558    0.042726938    0.037434752    0.051740983    4019.679     
       600   1.5143778      281.67428      0              281.67428      0.754148       0.046715883    0.046715883    0.045397714    0.039774724    0.054975209    4019.679     
       700   1.6441955      305.82036      0              305.82036      0.81879614     0.050720527    0.050720527    0.049289361    0.043184349    0.059687872    4019.679     
       800   1.5195245      282.63156      0              282.63156      0.756711       0.046874648    0.046874648    0.045552       0.0399099      0.055162045    4019.679     
       900   1.4322416      266.39694      0              266.39694      0.71324483     0.044182125    0.044182125    0.042935452    0.037617439    0.051993486    4019.679     
      1000   1.4822051      275.69015      0              275.69015      0.73812623     0.04572341     0.04572341     0.044433246    0.038929715    0.053807268    4019.679     
      1100   1.5501206      288.32243      0              288.32243      0.77194761     0.047818484    0.047818484    0.046469204    0.040713498    0.056272749    4019.679     
      1200   1.5432297      287.04072      0              287.04072      0.76851597     0.04760591     0.04760591     0.046262628    0.040532509    0.056022593    4019.679     
      1300   1.3846465      257.54425      0              257.54425      0.68954284     0.0427139      0.0427139      0.041508654    0.036367365    0.05026568     4019.679     
      1400   1.3740195      255.56763      0              255.56763      0.68425068     0.042386076    0.042386076    0.041190081    0.036088251    0.049879897    4019.679     
      1500   1.5486186      288.04306      0              288.04306      0.77119962     0.047772149    0.047772149    0.046424177    0.040674048    0.056218223    4019.679     
      1600   1.5501411      288.32624      0              288.32624      0.77195781     0.047819116    0.047819116    0.046469818    0.040714036    0.056273493    4019.679     
      1700   1.4800039      275.28072      0              275.28072      0.73703005     0.045655507    0.045655507    0.044367259    0.038871901    0.05372736     4019.679     
      1800   1.4405723      267.94645      0              267.94645      0.71739345     0.044439113    0.044439113    0.043185188    0.037836242    0.052295909    4019.679     
      1900   1.5551871      289.26481      0              289.26481      0.7744707      0.047974777    0.047974777    0.046621087    0.040846569    0.056456675    4019.679     
      2000   1.6625204      309.22879      0              309.22879      0.82792179     0.051285818    0.051285818    0.049838701    0.043665647    0.060353105    4019.679     
      2100   1.4979878      278.62573      0              278.62573      0.74598588     0.046210278    0.046210278    0.044906376    0.039344243    0.054380214    4019.679     
      2200   1.4470525      269.15176      0              269.15176      0.72062051     0.044639014    0.044639014    0.043379448    0.038006442    0.052531152    4019.679     
      2300   1.5000462      279.0086       1.1335989      280.1422       0.74701097     0.12505576     0.12505576     0.045699498    0.055067805    0.27439997     4019.679     
      2400   1.5689834      291.83092      0              291.83092      0.78134115     0.048400369    0.048400369    0.047118228    0.043137948    0.05494493     4019.679     
      2500   1.4904504      277.22377      0              277.22377      0.74223233     0.045977763    0.045977763    0.044759798    0.040978745    0.052194747    4019.679     
      2600   1.3231577      246.10734      0              246.10734      0.65892193     0.04081708     0.04081708     0.039735823    0.036379167    0.046336251    4019.679     
      2700   1.4431122      268.41888      0              268.41888      0.7186583      0.044517465    0.044517465    0.043338183    0.03967722     0.050536991    4019.679     
      2800   1.5405996      286.55153      0              286.55153      0.76720623     0.047524778    0.047524778    0.046265832    0.042357557    0.053950944    4019.679     
      2900   1.509806       280.82391      4.3455362      285.16945      0.75187126     0.24614852     0.24614852     0.61931589     0.055639784    0.063489898    4019.679     
      3000   1.4829516      275.82899      0              275.82899      0.73849797     0.045746437    0.045746437    0.042804655    0.041714967    0.052719691    4019.679     
      3100   1.3995141      260.30963      0              260.30963      0.69694679     0.04317254     0.04317254     0.040396275    0.039367898    0.049753447    4019.679     
      3200   1.4380704      267.48109      0.61113242     268.09222      0.71614748     0.10224349     0.10224349     0.17674638     0.075838492    0.05414559     4019.679     
      3300   1.6105295      299.55848      0              299.55848      0.80203075     0.049681991    0.049681991    0.044528989    0.047707376    0.056809608    4019.679     
      3400   1.5595833      290.0825       0              290.0825       0.77665996     0.048110391    0.048110391    0.043120395    0.04619824     0.055012539    4019.679     
      3500   1.4458216      268.92282      0              268.92282      0.72000755     0.044601044    0.044601044    0.037799872    0.044640095    0.051363165    4019.679     
      3600   1.4586068      271.30087      0              271.30087      0.72637449     0.044995446    0.044995446    0.038134131    0.045034842    0.051817363    4019.679     
      3700   1.5115802      281.15391      0              281.15391      0.75275478     0.046629579    0.046629579    0.039519078    0.046670407    0.053699254    4019.679     
      3800   1.5194746      282.62228      0              282.62228      0.75668616     0.04687311     0.04687311     0.038272291    0.047568263    0.054778774    4019.679     
      3900   1.4989143      278.79807      1.3058047      280.10387      0.74644731     0.13077849     0.13077849     0.060237338    0.2748909      0.05720724     4019.679     
      4000   1.4904053      277.21538      0              277.21538      0.74220986     0.045976371    0.045976371    0.038407602    0.045678367    0.053843144    4019.679     
      4100   1.4833695      275.90673      0              275.90673      0.7387061      0.04575933     0.04575933     0.038226291    0.045462733    0.053588966    4019.679     
      4200   1.5232006      283.31532      0              283.31532      0.75854168     0.04698805     0.04698805     0.039252735    0.046683489    0.055027926    4019.679     
      4300   1.5610083      290.34754      0              290.34754      0.77736958     0.048154349    0.048154349    0.040227035    0.047842228    0.056393784    4019.679     
      4400   1.4918574      277.48548      0.69257136     278.17805      0.742933       0.10763181     0.10763181     0.039495836    0.090038296    0.19336128     4019.679     
      4500   1.3968329      259.81093      0.039577188    259.8505       0.69561158     0.057838797    0.057838797    0.067891964    0.044191875    0.061432551    4019.679     
      4600   1.4722448      273.83752      2.5701531      276.40768      0.73316606     0.25039916     0.25039916     0.072343849    0.2763216      0.40253203     4019.679     
      4700   1.6359977      304.29557      0              304.29557      0.81471371     0.05046764     0.05046764     0.045356864    0.051337413    0.054708644    4019.679     
      4800   1.5412754      286.67723      0.047157417    286.72439      0.76754279     0.063644535    0.063644535    0.049755873    0.086566063    0.054611668    4019.679     
      4900   1.4645662      272.40932      0              272.40932      0.72934222     0.045179282    0.045179282    0.0413268      0.044921746    0.049289301    4019.679     
      5000   1.4828022      275.80121      0              275.80121      0.73842359     0.04574183     0.04574183     0.041203328    0.04548635     0.050535812    4019.679     
      5100   1.5615454      290.44745      0.012795834    290.46024      0.77763707     0.056558888    0.056558888    0.044208857    0.063314047    0.062153759    4019.679     
      5200   1.7372086      323.1208       0.0070310361   323.12783      0.86511593     0.059807959    0.059807959    0.052272094    0.054474122    0.072677662    4019.679     
      5300   1.6056745      298.65547      1.4270936      300.08256      0.79961303     0.17707472     0.17707472     0.085056088    0.36020542     0.085962669    4019.679     
      5400   1.4621331      271.95675      0              271.95675      0.72813052     0.045104224    0.045104224    0.041803341    0.044836416    0.048672914    4019.679     
      5500   1.4553284      270.69109      2.4978423      273.18893      0.72474187     0.19876536     0.19876536     0.34130263     0.18019428     0.074799178    4019.679     
      5600   1.5670083      291.46354      0              291.46354      0.78035753     0.048339438    0.048339438    0.043384402    0.048934302    0.052699611    4019.679     
      5700   1.5894563      295.63888      0              295.63888      0.79153648     0.049031921    0.049031921    0.044005901    0.049635307    0.053454555    4019.679     
      5800   1.4002235      260.44158      0.006214059    260.44779      0.69730007     0.049040218    0.049040218    0.041223309    0.043730407    0.062166936    4019.679     
      5900   1.3896163      258.46863      0.46014713     258.92877      0.69201774     0.093103952    0.093103952    0.041792178    0.16555514     0.071964542    4019.679     
      6000   1.5120931      281.24932      0              281.24932      0.75301022     0.046645402    0.046645402    0.042901908    0.045396641    0.051637657    4019.679     
      6100   1.5391798      286.28743      0              286.28743      0.76649915     0.047480978    0.047480978    0.043670425    0.046209848    0.052562661    4019.679     
      6200   1.4906427      277.25954      2.4204791      279.68002      0.74232809     0.16097621     0.16097621     0.25613029     0.16539328     0.061405052    4019.679     
      6300   1.4461012      268.97483      1.7787786      270.75361      0.7201468      0.15533631     0.15533631     0.091976723    0.068478711    0.30555349     4019.679     
      6400   1.4403886      267.91228      0              267.91228      0.71730196     0.044433446    0.044433446    0.037621372    0.044841136    0.050837829    4019.679     
      6500   1.5557955      289.37797      0              289.37797      0.77477368     0.047993546    0.047993546    0.040635674    0.048433901    0.054911062    4019.679     
      6600   1.6121124      299.8529       0.018576081    299.87148      0.80281901     0.059836768    0.059836768    0.043132005    0.067845394    0.068532905    4019.679     
      6700   1.4735002      274.07104      0              274.07104      0.73379126     0.045454879    0.045454879    0.038387017    0.046076871    0.05190075     4019.679     
      6800   1.4007931      260.54752      0.015852409    260.56337      0.69758373     0.052547928    0.052547928    0.051151534    0.046876516    0.059615733    4019.679     
      6900   1.4879554      276.7597       0              276.7597       0.74098983     0.045900797    0.045900797    0.038269158    0.047359781    0.052073451    4019.679     
      7000   1.5301909      284.6155       0.028206383    284.64371      0.76202276     0.059655796    0.059655796    0.039956254    0.083310753    0.055700382    4019.679     
      7100   1.5151105      281.81055      0              281.81055      0.75451285     0.046738483    0.046738483    0.03900167     0.047783744    0.053430035    4019.679     
      7200   1.4819511      275.6429       0              275.6429       0.73799974     0.045715575    0.045715575    0.038148087    0.046737959    0.052260677    4019.679     
      7300   1.4637328      272.2543       0              272.2543       0.72892719     0.045153573    0.045153573    0.037679116    0.046163389    0.051618214    4019.679     
      7400   1.5362855      285.74911      0.0015017569   285.75061      0.76505786     0.050265748    0.050265748    0.041756599    0.050101778    0.058938866    4019.679     
      7500   1.6150553      300.40029      0              300.40029      0.80428457     0.049821604    0.049821604    0.041884269    0.053055262    0.054525282    4019.679     
      7600   1.4976318      278.55952      0.0026533079   278.56217      0.74580862     0.05001941     0.05001941     0.049333691    0.050174746    0.050549793    4019.679     
      7700   1.396632       259.77355      0.38802945     260.16158      0.69551151     0.089221694    0.089221694    0.11295743     0.059137815    0.09556984     4019.679     
      7800   1.4626445      272.05187      3.883989       275.93586      0.72838519     0.23947756     0.23947756     0.16074224     0.43620828     0.12148216     4019.679     
      7900   1.5562631      289.46493      0              289.46493      0.77500651     0.048007968    0.048007968    0.040799519    0.051424564    0.051799822    4019.679     
      8000   1.5223356      283.15441      2.0458285      285.20024      0.75811088     0.15271024     0.15271024     0.12468187     0.25129479     0.082154044    4019.679     
      8100   1.488761       276.90955      0              276.90955      0.74139103     0.045925649    0.045925649    0.038291972    0.050764171    0.048720803    4019.679     
      8200   1.4556102      270.7435       0              270.7435       0.72488219     0.044903005    0.044903005    0.03743931     0.049633786    0.047635918    4019.679     
      8300   1.5161213      281.99856      0              281.99856      0.75501623     0.046769665    0.046769665    0.039257871    0.050804601    0.050246524    4019.679     
      8400   1.6284624      302.894        0              302.894        0.81096119     0.05023519     0.05023519     0.042166789    0.054569104    0.053969676    4019.679     
      8500   1.522668       283.21624      0              283.21624      0.75827642     0.046971618    0.046971618    0.039427388    0.051023977    0.050463491    4019.679     
      8600   1.4076258      261.81839      0              261.81839      0.70098632     0.043422769    0.043422769    0.036448528    0.047168959    0.04665082     4019.679     
      8700   1.4615257      271.84379      1.6114322      273.45522      0.72782808     0.13897215     0.13897215     0.090402645    0.079723965    0.24678984     4019.679     
      8800   1.538709       286.19988      0              286.19988      0.76626474     0.047466457    0.047466457    0.038119781    0.051889066    0.052390523    4019.679     
      8900   1.5264852      283.92625      0              283.92625      0.76017737     0.047089373    0.047089373    0.03781695     0.051476849    0.051974322    4019.679     
      9000   1.4944702      277.97146      0              277.97146      0.74423415     0.046101767    0.046101767    0.037023814    0.050397223    0.050884263    4019.679     
      9100   1.4843134      276.08229      0.20941937     276.29171      0.73917615     0.079695978    0.079695978    0.057884664    0.13062427     0.050578995    4019.679     
      9200   1.5708994      292.18729      0.0026212748   292.18991      0.78229529     0.052256459    0.052256459    0.045663281    0.057646947    0.053459148    4019.679     
      9300   1.6182352      300.99175      5.188297       306.18005      0.80586814     0.28418727     0.28418727     0.25034317     0.071339979    0.53087867     4019.679     
      9400   1.4919192      277.49697      0              277.49697      0.74296378     0.046023073    0.046023073    0.037062572    0.050997637    0.05000901     4019.679     
      9500   1.4198198      264.08648      0.020860418    264.10734      0.70705884     0.054508048    0.054508048    0.047207167    0.063290133    0.053026844    4019.679     
      9600   1.5094857      280.76434      0              280.76434      0.75171175     0.046564968    0.046564968    0.037932583    0.051667132    0.050095191    4019.679     
      9700   1.5912069      295.96448      0              295.96448      0.79240824     0.049085922    0.049085922    0.039986193    0.054464309    0.052807265    4019.679     
      9800   1.4860089      276.39766      2.1555042      278.55316      0.74002051     0.19262904     0.19262904     0.32670666     0.12360013     0.12758033     4019.679     
      9900   1.2880709      239.58118      0              239.58118      0.64144895     0.039734713    0.039734713    0.031889355    0.044287452    0.043027331    4019.679     
     10000   1.39406        259.29516      0              259.29516      0.6942307      0.04300429     0.04300429     0.034513376    0.047931652    0.046567843    4019.679     
     10100   1.5339486      285.31443      0              285.31443      0.76389406     0.047319605    0.047319605    0.038215875    0.052499211    0.051243728    4019.679     
     10200   1.572066       292.40428      0.24479969     292.64907      0.78287624     0.098960429    0.098960429    0.063915088    0.14215031     0.090815887    4019.679     
     10300   1.4802057      275.31826      0              275.31826      0.73713054     0.045661732    0.045661732    0.035675582    0.050853808    0.050455805    4019.679     
     10400   1.3871123      258.00289      0              258.00289      0.6907708      0.042789966    0.042789966    0.033431867    0.047655502    0.04728253     4019.679     
     10500   1.527671       284.1468       0              284.1468       0.76076787     0.047125952    0.047125952    0.036819579    0.052484521    0.052073756    4019.679     
     10600   1.6442293      305.82664      0.032920585    305.85956      0.81881297     0.064173664    0.064173664    0.044409405    0.084458813    0.063652774    4019.679     
     10700   1.5169833      282.15889      0              282.15889      0.75544549     0.046796256    0.046796256    0.03655822     0.052061866    0.051768681    4019.679     
     10800   1.4479925      269.32661      0              269.32661      0.72108864     0.044668013    0.044668013    0.034895592    0.049694149    0.049414298    4019.679     
     10900   1.4847637      276.16604      1.6484014      277.81444      0.73940037     0.19458841     0.19458841     0.32215368     0.090661915    0.17094964     4019.679     
     11000   1.6298405      303.15034      0.14812734     303.29847      0.81164749     0.078799446    0.078799446    0.04100898     0.086998348    0.10839101     4019.679     
     11100   1.6975286      315.74032      0              315.74032      0.84535562     0.052365761    0.052365761    0.04306504     0.057551608    0.056480635    4019.679     
     11200   1.4527171      270.20538      0.038964602    270.24435      0.72344146     0.059448186    0.059448186    0.06009809     0.049755061    0.068491408    4019.679     
     11300   1.4261156      265.2575       0              265.2575       0.71019411     0.043993148    0.043993148    0.036022061    0.048450082    0.0475073      4019.679     
     11400   1.5455079      287.46447      0              287.46447      0.76965052     0.04767619     0.04767619     0.038669943    0.052359309    0.051999317    4019.679     
     11500   1.5970461      297.05058      0              297.05058      0.79531613     0.049266053    0.049266053    0.039959474    0.05410534     0.053733344    4019.679     
     11600   1.4168341      263.53115      7.3541514      270.8853       0.70557201     0.24362723     0.24362723     0.052113609    0.60199653     0.076771569    4019.679     
     11700   1.3865317      257.89489      0              257.89489      0.69048163     0.042772054    0.042772054    0.034596639    0.047050217    0.046669306    4019.679     
     11800   1.5692818      291.88642      1.3937468      293.28016      0.78148974     0.14876286     0.14876286     0.070614154    0.16730303     0.2083714      4019.679     
     11900   1.624056       302.07441      4.1199832      306.1944       0.80876684     0.36066013     0.36066013     0.40662188     0.28259591     0.39276261     4019.679     
     12000   1.5118603      281.20602      0              281.20602      0.7528943      0.046638222    0.046638222    0.037126221    0.053389009    0.049399436    4019.679     
     12100   1.4254418      265.13218      0              265.13218      0.70985858     0.043972364    0.043972364    0.03461389     0.050290199    0.047013003    4019.679     
     12200   1.4929387      277.68659      0.26542765     277.95202      0.74347146     0.084223       0.084223       0.075681668    0.052635896    0.12435143     4019.679     
     12300   1.6151509      300.41806      1.2657794      301.68384      0.80433216     0.13306175     0.13306175     0.098618816    0.060544977    0.24002145     4019.679     
     12400   1.53598        285.69229      0              285.69229      0.76490572     0.047382272    0.047382272    0.037092906    0.053804934    0.051248976    4019.679     
     12500   1.3696013      254.74584      0.76575846     255.5116       0.68205044     0.13305456     0.13305456     0.037723878    0.17561436     0.18582542     4019.679     
     12600   1.4400633      267.85177      0              267.85177      0.71713994     0.044423409    0.044423409    0.034286601    0.050271138    0.048712489    4019.679     
     12700   1.5453307      287.43151      0              287.43151      0.76956227     0.047670724    0.047670724    0.036529751    0.053935711    0.052546708    4019.679     
     12800   1.5731984      292.6149       0.71593417     293.33083      0.78344016     0.11116963     0.11116963     0.14147909     0.083938867    0.10809093     4019.679     
     12900   1.4610481      271.75495      0              271.75495      0.72759022     0.045070754    0.045070754    0.035188068    0.050728467    0.049295727    4019.679     
     13000   1.3541965      251.88055      0              251.88055      0.67437899     0.041774572    0.041774572    0.032614641    0.047018516    0.045690558    4019.679     
     13100   1.5231432      283.30464      0              283.30464      0.75851309     0.046986279    0.046986279    0.038099613    0.051961177    0.050898048    4019.679     
     13200   1.5760375      293.14298      1.9893603      295.13234      0.78485404     0.18477343     0.18477343     0.075395613    0.18842876     0.2904959      4019.679     
     13300   1.5026333      279.48979      0              279.48979      0.7482993      0.046353583    0.046353583    0.038524727    0.050836594    0.04969943     4019.679     
     13400   1.4321914      266.3876       0              266.3876       0.7132198      0.044180575    0.044180575    0.036718727    0.048453427    0.047369572    4019.679     
     13500   1.4938471      277.85556      0.78081737     278.63638      0.74392387     0.11149315     0.11149315     0.11559999     0.13636309     0.082516357    4019.679     
     13600   1.6629099      309.30124      0              309.30124      0.82811576     0.051297834    0.051297834    0.042323333    0.05689537     0.054674798    4019.679     
     13700   1.5544467      289.12709      0              289.12709      0.77410199     0.047951938    0.047951938    0.039562798    0.053184375    0.05110864     4019.679     
     13800   1.4554232      270.70872      0.60020503     271.30892      0.72478907     0.10225988     0.10225988     0.044336737    0.17140476     0.091038156    4019.679     
     13900   1.4923973      277.5859       0              277.5859       0.74320188     0.046037822    0.046037822    0.037968772    0.049950716    0.050193978    4019.679     
     14000   1.5513141      288.54443      0              288.54443      0.77254198     0.047855302    0.047855302    0.039467702    0.051922669    0.052175535    4019.679     
     14100   1.5441851      287.21842      0.0033259965   287.22175      0.76899176     0.051912363    0.051912363    0.039795658    0.060064527    0.055876905    4019.679     
     14200   1.4011754      260.61863      0.22823154     260.84686      0.69777411     0.078619937    0.078619937    0.043625949    0.13184383     0.060390029    4019.679     
     14300   1.398009       260.02968      0.24750964     260.27719      0.69619728     0.079985236    0.079985236    0.03825818     0.15564703     0.046050499    4019.679     
     14400   1.5779723      293.50285      0.016645595    293.5195       0.78581754     0.05824424     0.05824424     0.068334839    0.051468577    0.054929306    4019.679     
     14500   1.5615271      290.44404      0.0048010264   290.44884      0.77762795     0.053308803    0.053308803    0.047061105    0.06099739     0.051867916    4019.679     
     14600   1.4728488      273.94988      1.7186615      275.66854      0.73346688     0.14238585     0.14238585     0.07862353     0.18045902     0.16807499     4019.679     
     14700   1.4684038      273.12311      0.55479601     273.6779       0.7312533      0.10045142     0.10045142     0.15686207     0.052925661    0.09156653     4019.679     
     14800   1.6177196      300.89585      0.064339154    300.96019      0.80561139     0.068706643    0.068706643    0.055104094    0.098312764    0.052703071    4019.679     
     14900   1.6680525      310.25777      3.8221236      314.0799       0.83067677     0.24749851     0.24749851     0.56893808     0.077312949    0.096244501    4019.679     
     15000   1.4957616      278.21166      0              278.21166      0.74487726     0.046141604    0.046141604    0.043315588    0.04783401     0.047275215    4019.679     
     15100   1.4674622      272.94798      0              272.94798      0.73078441     0.045268619    0.045268619    0.04212159     0.046573229    0.047111037    4019.679     
     15200   1.5184862      282.43843      0              282.43843      0.75619392     0.046842617    0.046842617    0.043586166    0.048192589    0.048749097    4019.679     
     15300   1.5746512      292.88512      0              292.88512      0.78416364     0.048575209    0.048575209    0.045198309    0.049975113    0.050552204    4019.679     
     15400   1.512017       281.23516      0              281.23516      0.75297231     0.046643054    0.046643054    0.043400476    0.047987275    0.048541412    4019.679     
     15500   1.3802907      256.73408      0.055292486    256.78937      0.6873737      0.060011123    0.060011123    0.046600013    0.081812766    0.05162059     4019.679     
     15600   1.4685383      273.14812      0.36635335     273.51447      0.73132027     0.090134448    0.090134448    0.08772084     0.049297546    0.13338496     4019.679     
     15700   1.5939615      296.47684      0.044145507    296.52098      0.79378001     0.064747457    0.064747457    0.062533221    0.078739165    0.052969984    4019.679     
     15800   1.5441358      287.20926      0.014429968    287.22369      0.76896723     0.056541211    0.056541211    0.057990856    0.053514464    0.058118312    4019.679     
     15900   1.4807905      275.42704      0              275.42704      0.7374218      0.045679774    0.045679774    0.040043559    0.048752194    0.048243569    4019.679     
     16000   1.4752884      274.40364      0.88291691     275.28656      0.73468177     0.11505711     0.11505711     0.23403258     0.05039471     0.060744039    4019.679     
     16100   1.5606923      290.28876      0              290.28876      0.77721221     0.048144601    0.048144601    0.042728279    0.051477694    0.050227829    4019.679     
     16200   1.7613248      327.60641      0              327.60641      0.87712559     0.054333759    0.054333759    0.04822115     0.058095334    0.056684794    4019.679     
     16300   1.5685724      291.75448      0.78943769     292.54391      0.78113648     0.11415765     0.11415765     0.067247307    0.067365845    0.20785981     4019.679     
     16400   1.4713477      273.67067      0              273.67067      0.73271933     0.045388478    0.045388478    0.039394376    0.047344863    0.049426195    4019.679     
     16500   1.4737238      274.11263      1.4619073      275.57454      0.73390262     0.13489863     0.13489863     0.21774079     0.13109098     0.055864123    4019.679     
     16600   1.5731335      292.60283      0              292.60283      0.78340784     0.04852839     0.04852839     0.03974912     0.052875873    0.052960178    4019.679     
     16700   1.5856273      294.92668      0              294.92668      0.78962966     0.048913803    0.048913803    0.040064808    0.053295813    0.053380788    4019.679     
     16800   1.393724       259.23267      1.2376252      260.47029      0.69406337     0.12530253     0.12530253     0.056113146    0.24475634     0.075038116    4019.679     
     16900   1.402515       260.86779      0              260.86779      0.69844121     0.043265112    0.043265112    0.035038645    0.045580256    0.049176433    4019.679     
     17000   1.5259006      283.81751      0              283.81751      0.75988623     0.047071339    0.047071339    0.038121153    0.049590157    0.053502706    4019.679     
     17100   1.5411645      286.65659      0              286.65659      0.76748752     0.047542202    0.047542202    0.038502486    0.050086217    0.054037903    4019.679     
     17200   1.4996015      278.92587      0              278.92587      0.74678949     0.046260058    0.046260058    0.03746413     0.048735464    0.052580579    4019.679     
     17300   1.4628497      272.09004      0              272.09004      0.7284874      0.04512633     0.04512633     0.03654597     0.04754107     0.05129195     4019.679     
     17400   1.4907028      277.27072      0              277.27072      0.74235803     0.04598555     0.04598555     0.037241817    0.048446267    0.052268565    4019.679     
     17500   1.6055255      298.62774      0.084127045    298.71187      0.7995388      0.076768249    0.076768249    0.041627129    0.062877936    0.12579968     4019.679     
     17600   1.5620044      290.53281      0.24145056     290.77426      0.77786562     0.099611514    0.099611514    0.077895112    0.12688889     0.094050546    4019.679     
     17700   1.4201696      264.15154      0              264.15154      0.70723303     0.043809723    0.043809723    0.03539447     0.046123665    0.049911035    4019.679     
     17800   1.4361088      267.11623      1.5584217      268.67466      0.71517064     0.1671172      0.1671172      0.20406312     0.12766053     0.16962796     4019.679     
     17900   1.5704239      292.09884      1.1822605      293.2811       0.78205848     0.12889586     0.12889586     0.065519052    0.16575473     0.15541381     4019.679     
     18000   1.5731234      292.60095      0              292.60095      0.78340282     0.04852808     0.04852808     0.039244714    0.051610273    0.054729251    4019.679     
     18100   1.5118553      281.20508      0.7005581      281.90564      0.75289178     0.13050224     0.13050224     0.19838984     0.11340159     0.079715285    4019.679     
     18200   1.4700959      273.43784      0              273.43784      0.73209596     0.045349864    0.045349864    0.036074206    0.049197799    0.050777586    4019.679     
     18300   1.4797987      275.24257      0.86388144     276.10645      0.73692789     0.11444402     0.11444402     0.070978714    0.074415803    0.19793755     4019.679     
     18400   1.6108865      299.6249       2.3787969      302.00369      0.80220856     0.20729172     0.20729172     0.23247977     0.22688759     0.16250779     4019.679     
     18500   1.6461968      306.1926       0.43067434     306.62327      0.81979277     0.099385938    0.099385938    0.060009771    0.1363482      0.10179984     4019.679     
     18600   1.4436119      268.51181      0              268.51181      0.71890712     0.044532877    0.044532877    0.039026342    0.047710365    0.046861925    4019.679     
     18700   1.4396304      267.77126      1.3002702      269.07153      0.71692439     0.16378693     0.16378693     0.12607974     0.23192497     0.13335606     4019.679     
     18800   1.5304652      284.66652      2.509514       287.17603      0.76215935     0.16429305     0.16429305     0.18998404     0.23235304     0.070542073    4019.679     
     18900   1.5705686      292.12575      0.95883622     293.08459      0.78213053     0.12091833     0.12091833     0.095047295    0.18937104     0.078336649    4019.679     
     19000   1.4237644      264.82018      0              264.82018      0.70902324     0.043920618    0.043920618    0.040358095    0.050108906    0.041294854    4019.679     
     19100   1.3303997      247.45434      0.12113592     247.57548      0.66252835     0.066835195    0.066835195    0.048743568    0.089519629    0.062242388    4019.679     
     19200   1.4504151      269.77721      1.0502858      270.82749      0.72229506     0.13978751     0.13978751     0.052769742    0.07700466     0.28958812     4019.679     
     19300   1.5281562      284.23706      0              284.23706      0.76100953     0.047140921    0.047140921    0.042494535    0.05291707     0.046011159    4019.679     
     19400   1.5430984      287.01631      0              287.01631      0.76845062     0.047601862    0.047601862    0.043309669    0.053500433    0.045995484    4019.679     
     19500   1.457853       271.16065      3.1367607      274.29741      0.72599906     0.27109542     0.27109542     0.10420287     0.41018308     0.29890031     4019.679     
     19600   1.3993623      260.2814       0.012098305    260.29349      0.69687121     0.051324056    0.051324056    0.056367802    0.057998334    0.039606033    4019.679     
     19700   1.5064698      280.20338      0              280.20338      0.75020984     0.046471932    0.046471932    0.043123983    0.054164081    0.042127733    4019.679     
     19800   1.6325072      303.64635      0              303.64635      0.81297549     0.050359966    0.050359966    0.046731914    0.058695671    0.045652313    4019.679     
     19900   1.5213946      282.9794       0.29391138     283.27331      0.75764231     0.087094194    0.087094194    0.055594547    0.14989394     0.055794092    4019.679     
     20000   1.4520308      270.07772      0.33269253     270.41042      0.72309966     0.098567507    0.098567507    0.09910812     0.12977421     0.066820191    4019.679     
     20100   1.4864882      276.4868       0              276.4868       0.74025918     0.045855536    0.045855536    0.043128583    0.050238357    0.044199668    4019.679     
     20200   1.5205122      282.81527      0              282.81527      0.75720287     0.046905117    0.046905117    0.044115748    0.051388256    0.045211348    4019.679     
     20300   1.518595       282.45867      0              282.45867      0.75624812     0.046845975    0.046845975    0.044060123    0.051323461    0.045154342    4019.679     
     20400   1.4950651      278.08211      0.66761963     278.74973      0.74453041     0.10661278     0.10661278     0.12383632     0.083976139    0.11202589     4019.679     
     20500   1.5273325      284.08385      0              284.08385      0.76059934     0.047115512    0.047115512    0.043278761    0.05123544     0.046832336    4019.679     
     20600   1.6701192      310.64218      0              310.64218      0.83170596     0.05152023     0.05152023     0.04732479     0.056025319    0.05121058     4019.679     
     20700   1.5446326      287.30166      0              287.30166      0.76921461     0.047649187    0.047649187    0.043768977    0.051815781    0.047362804    4019.679     
     20800   1.420699       264.25001      0              264.25001      0.70749669     0.043826056    0.043826056    0.040257174    0.047658343    0.04356265     4019.679     
     20900   1.4604296      271.6399       2.1815199      273.82142      0.72728221     0.17530985     0.17530985     0.12645689     0.26857109     0.13090157     4019.679     
     21000   1.6015904      297.89582      0              297.89582      0.79757918     0.049406237    0.049406237    0.045395758    0.053469291    0.049353663    4019.679     
     21100   1.5519459      288.66194      1.8515013      290.51344      0.77285659     0.1484917      0.1484917      0.15341364     0.10174732     0.19031413     4019.679     
     21200   1.3465512      250.45853      3.1261534      253.58468      0.67057169     0.17216095     0.17216095     0.11401813     0.17355915     0.22890559     4019.679     
     21300   1.3816         256.97761      0.03888571     257.01649      0.68802573     0.057239534    0.057239534    0.048295868    0.062997276    0.060425458    4019.679     
     21400   1.4694726      273.3219       2.5313503      275.85325      0.73178554     0.162918       0.162918       0.14558791     0.052923514    0.29024259     4019.679     
     21500   1.5740326      292.77006      0              292.77006      0.78385558     0.048556126    0.048556126    0.045631257    0.053912788    0.046124332    4019.679     
     21600   1.5441551      287.21284      0              287.21284      0.76897682     0.047634458    0.047634458    0.042896983    0.053297703    0.046708687    4019.679     
     21700   1.4072591      261.7502       0              261.7502       0.70080374     0.043411459    0.043411459    0.039093982    0.048572633    0.042567762    4019.679     
     21800   1.3975892      259.95159      0              259.95159      0.69598819     0.043113159    0.043113159    0.038825349    0.048238869    0.042275259    4019.679     
     21900   1.6253747      302.3197       0.46440923     302.78411      0.80942355     0.10060845     0.10060845     0.05596877     0.09116884     0.15468774     4019.679     
     22000   1.569177       291.86693      2.3289342      294.19586      0.78143755     0.16121084     0.16121084     0.20544617     0.17737486     0.10081151     4019.679     
     22100   1.4644037      272.37909      0.21640586     272.5955       0.72926129     0.079642174    0.079642174    0.14189414     0.04886575     0.048166628    4019.679     
     22200   1.4535815      270.36616      0.47089193     270.83705      0.72387191     0.095659419    0.095659419    0.047564603    0.10586544     0.13354822     4019.679     
     22300   1.5736992      292.70805      2.5521085      295.26016      0.78368956     0.16661264     0.16661264     0.08610616     0.14627427     0.26745748     4019.679     
     22400   1.6977391      315.77948      0.076420826    315.8559       0.84546045     0.072863563    0.072863563    0.072738014    0.083748398    0.062104276    4019.679     
     22500   1.4402957      267.89501      0              267.89501      0.71725571     0.044430581    0.044430581    0.042191546    0.046417091    0.044683106    4019.679     
     22600   1.4345864      266.83308      0              266.83308      0.71441252     0.044254458    0.044254458    0.042024299    0.046233094    0.044505982    4019.679     
     22700   1.549416       288.19138      0              288.19138      0.77159674     0.047796749    0.047796749    0.045388079    0.049933762    0.048068406    4019.679     
     22800   1.5871365      295.20738      0              295.20738      0.79038121     0.048960357    0.048960357    0.046493049    0.051149396    0.049238628    4019.679     
     22900   1.4507024      269.83065      0              269.83065      0.72243815     0.044751608    0.044751608    0.042496395    0.046752471    0.045005957    4019.679     
     23000   1.3789834      256.49092      0              256.49092      0.68672267     0.042539204    0.042539204    0.040395483    0.04444115     0.042780979    4019.679     
     23100   1.5310198      284.76968      1.5428         286.31248      0.76243555     0.13910044     0.13910044     0.13325047     0.063699753    0.22035108     4019.679     
     23200   1.590365       295.80789      0.34563726     296.15353      0.791989       0.092608266    0.092608266    0.061931639    0.11273201     0.10316115     4019.679     
     23300   1.4995182      278.91039      2.3451078      281.2555       0.74674803     0.20168404     0.20168404     0.20541423     0.14255273     0.25708514     4019.679     
     23400   1.4436678      268.52222      0              268.52222      0.71893498     0.044534604    0.044534604    0.042714536    0.047301621    0.043587653    4019.679     
     23500   1.4821944      275.68816      0              275.68816      0.73812091     0.04572308     0.04572308     0.043854442    0.04856394     0.044750859    4019.679     
     23600   1.6364063      304.37158      0.24280314     304.61438      0.81491721     0.086987632    0.086987632    0.092408981    0.078761194    0.089792721    4019.679     
     23700   1.5766865      293.26369      1.0852102      294.3489       0.78517721     0.17604326     0.17604326     0.12007704     0.23627019     0.17178255     4019.679     
     23800   1.4068224      261.66896      0.14777719     261.81674      0.70058623     0.071886027    0.071886027    0.043443878    0.12777502     0.044439184    4019.679     
     23900   1.4564738      270.90412      0.12013572     271.02426      0.72531224     0.070617729    0.070617729    0.044719363    0.053030618    0.1141032      4019.679     
     24000   1.5499816      288.29658      0.29373192     288.59031      0.7718784      0.087963804    0.087963804    0.054351853    0.15496178     0.054577778    4019.679     
     24100   1.5591806      290.00759      0.7666456      290.77423      0.7764594      0.11291342     0.11291342     0.052722642    0.23662601     0.049391612    4019.679     
     24200   1.4157617      263.33167      0.19149802     263.52317      0.70503794     0.076099446    0.076099446    0.12966504     0.051290983    0.047342315    4019.679     
     24300   1.3366634      248.61939      0              248.61939      0.66564762     0.041233705    0.041233705    0.040613075    0.041252103    0.041835936    4019.679     
     24400   1.5111146      281.06731      0              281.06731      0.75252291     0.046615216    0.046615216    0.045913587    0.046636015    0.047296046    4019.679     
     24500   1.5437465      287.13685      0              287.13685      0.76877336     0.047621854    0.047621854    0.046905073    0.047643102    0.048317386    4019.679     
     24600   1.4966506      278.37702      0              278.37702      0.74531999     0.04616903     0.04616903     0.045474116    0.046189629    0.046843343    4019.679     
     24700   1.4289694      265.7883       3.7321058      269.52041      0.71161527     0.18675005     0.18675005     0.39337667     0.092552332    0.074321148    4019.679     
     24800   1.5264977      283.92857      0.023935274    283.95251      0.76018359     0.058560759    0.058560759    0.051136307    0.049501424    0.075044547    4019.679     
     24900   1.6567261      308.15105      0              308.15105      0.82503628     0.051107074    0.051107074    0.051482688    0.04533433     0.056504205    4019.679     
     25000   1.5083711      280.55702      1.1818939      281.73891      0.75115668     0.15277404     0.15277404     0.15405169     0.23074787     0.07352257     4019.679     
     25100   1.422367       264.56026      0              264.56026      0.70832733     0.04387751     0.04387751     0.042768124    0.039205121    0.049659284    4019.679     
     25200   1.4824568      275.73696      0              275.73696      0.73825157     0.045731174    0.045731174    0.044574921    0.040861394    0.051757208    4019.679     
     25300   1.5523133      288.73028      0              288.73028      0.77303957     0.047886125    0.047886125    0.046675387    0.042786871    0.054196119    4019.679     
     25400   1.5346294      285.44107      0              285.44107      0.76423311     0.047340607    0.047340607    0.046143661    0.042299443    0.053578717    4019.679     
     25500   1.3563675      252.28436      0              252.28436      0.67546013     0.041841543    0.041841543    0.040783634    0.037385958    0.047355037    4019.679     
     25600   1.3706947      254.94921      0.014125866    254.96333      0.68259493     0.051096524    0.051096524    0.053043097    0.03800492     0.062241556    4019.679     
     25700   1.5244644      283.55038      0.28343469     283.83382      0.75917104     0.086467458    0.086467458    0.082948896    0.087145369    0.089308108    4019.679     
     25800   1.5389575      286.2461       0              286.2461       0.76638849     0.047474123    0.047474123    0.04652428     0.042432976    0.053465112    4019.679     
     25900   1.4867288      276.53156      0              276.53156      0.74037901     0.045862959    0.045862959    0.044945352    0.040992897    0.051650628    4019.679     
     26000   1.4342728      266.77474      0              266.77474      0.71425633     0.044244783    0.044244783    0.043359552    0.039546551    0.049828247    4019.679     
     26100   1.4977106      278.57418      0.57944807     279.15363      0.74584787     0.12380353     0.12380353     0.19822799     0.092141097    0.081041495    4019.679     
     26200   1.6457714      306.11348      0.0026121995   306.11609      0.81958094     0.054559549    0.054559549    0.058854762    0.048737933    0.056085952    4019.679     
     26300   1.5425914      286.922        0.043323098    286.96533      0.76819814     0.063017075    0.063017075    0.047021106    0.049175801    0.092854318    4019.679     
     26400   1.4371959      267.31843      0              267.31843      0.71571199     0.044334955    0.044334955    0.044190543    0.042184668    0.046629653    4019.679     
     26500   1.4755102      274.4449       0              274.4449       0.73479223     0.045516885    0.045516885    0.045368623    0.043309274    0.047872758    4019.679     
     26600   1.5267386      283.97338      0              283.97338      0.76030356     0.04709719     0.04709719     0.04694378     0.044812933    0.049534857    4019.679     
     26700   1.5346214      285.43958      0              285.43958      0.76422912     0.04734036     0.04734036     0.047744991    0.045704086    0.048572002    4019.679     
     26800   1.4554231      270.7087       0              270.7087       0.72478903     0.044897234    0.044897234    0.045280983    0.043345405    0.046065314    4019.679     
     26900   1.3143368      244.46665      0              244.46665      0.65452919     0.040544971    0.040544971    0.04089152     0.039143573    0.041599819    4019.679     
     27000   1.4553514      270.69537      0.932552       271.62792      0.72475333     0.11636606     0.11636606     0.06924318     0.10392526     0.17592974     4019.679     
     27100   1.5599595      290.15246      0.025833023    290.1783       0.77684729     0.060038911    0.060038911    0.066040634    0.054639452    0.059436648    4019.679     
     27200   1.5266554      283.9579       0              283.9579       0.76026212     0.047094623    0.047094623    0.047217562    0.044605857    0.049460451    4019.679     
     27300   1.4322809      266.40424      0.88045091     267.28469      0.71326437     0.11363342     0.11363342     0.053272095    0.04205937     0.24556879     4019.679     
     27400   1.4335006      266.63112      0              266.63112      0.7138718      0.044220964    0.044220964    0.04411173     0.041148847    0.047402314    4019.679     
     27500   1.6258211      302.40272      0.97193648     303.37466      0.80964584     0.12311506     0.12311506     0.059998815    0.087123715    0.22222265     4019.679     
     27600   1.5996582      297.53642      0              297.53642      0.79661692     0.04934663     0.04934663     0.047985531    0.045864751    0.054189608    4019.679     
     27700   1.4544702      270.53146      1.1179578      271.64942      0.72431449     0.12310572     0.12310572     0.09811857     0.21032516     0.060873419    4019.679     
     27800   1.46375        272.25749      0              272.25749      0.72893572     0.045154102    0.045154102    0.043733096    0.04190728     0.049821929    4019.679     
     27900   1.5235805      283.38597      0              283.38597      0.75873083     0.046999767    0.046999767    0.045520678    0.043620232    0.051858392    4019.679     
     28000   1.5483142      287.98643      0.64632363     288.63276      0.77104801     0.10728455     0.10728455     0.15997859     0.045451818    0.11642322     4019.679     
     28100   1.4507967      269.84818      0.27587059     270.12405      0.72248508     0.083665723    0.083665723    0.11483983     0.086755537    0.049401805    4019.679     
     28200   1.3571818      252.43581      0              252.43581      0.67586562     0.041866661    0.041866661    0.041085869    0.03924237     0.045271744    4019.679     
     28300   1.5002077      279.03862      0.62319515     279.66182      0.74709136     0.10472776     0.10472776     0.16733962     0.065813829    0.081029828    4019.679     
     28400   1.5855507      294.91243      0.21387021     295.1263       0.78959151     0.083177027    0.083177027    0.051397369    0.047846254    0.15028746     4019.679     
     28500   1.5173343      282.22417      5.7839371e-05  282.22423      0.75562028     0.047371158    0.047371158    0.045806745    0.04462752     0.051679209    4019.679     
     28600   1.419448       264.01732      0.24096        264.25828      0.70687368     0.080156172    0.080156172    0.083713245    0.053923554    0.10283172     4019.679     
     28700   1.4712027      273.6437       0              273.6437       0.73264711     0.045384005    0.045384005    0.044450393    0.042037335    0.049664285    4019.679     
     28800   1.6693493      310.49897      0              310.49897      0.83132254     0.051496478    0.051496478    0.050437125    0.047699068    0.056353242    4019.679     
     28900   1.5454644      287.45638      0              287.45638      0.76962886     0.047674848    0.047674848    0.046694111    0.044159249    0.052171184    4019.679     
     29000   1.4399987      267.83976      0              267.83976      0.71710779     0.044421418    0.044421418    0.044193942    0.041518799    0.047551512    4019.679     
     29100   1.4797192      275.22777      0              275.22777      0.73688827     0.045646724    0.045646724    0.045391173    0.04235662     0.049192379    4019.679     
     29200   1.5857039      294.94092      0.017392707    294.95832      0.7896678      0.058695017    0.058695017    0.067772343    0.055324033    0.052988676    4019.679     
     29300   1.6023771      298.04213      0.091091538    298.13322      0.7979709      0.071801132    0.071801132    0.11260225     0.046008668    0.056792473    4019.679     
     29400   1.4005409      260.50061      0              260.50061      0.69745813     0.043204215    0.043204215    0.043008882    0.039628464    0.046975298    4019.679     
     29500   1.4110372      262.45291      0.19286457     262.64578      0.70268517     0.076069081    0.076069081    0.059085437    0.11625658     0.052865226    4019.679     
     29600   1.5626829      290.65901      0.019021864    290.67803      0.77820351     0.058432458    0.058432458    0.063926191    0.046819599    0.064551585    4019.679     
     29700   1.5726459      292.51214      0              292.51214      0.78316504     0.04851335     0.04851335     0.048487125    0.043921846    0.05313108     4019.679     
     29800   1.473654       274.09965      0              274.09965      0.73386787     0.045459625    0.045459625    0.046456368    0.041286375    0.048636131    4019.679     
     29900   1.4273804      265.49276      0              265.49276      0.71082398     0.044032166    0.044032166    0.044997611    0.039989958    0.047108928    4019.679     
     30000   1.6038288      298.31217      1.2961585      299.60832      0.79869388     0.13370289     0.13370289     0.21339022     0.045431358    0.14228708     4019.679     
     30100   1.6470471      306.35076      1.0918588      307.44261      0.82021621     0.12812989     0.12812989     0.20519442     0.075710777    0.10348447     4019.679     
     30200   1.4729127      273.96176      6.1325108e-05  273.96182      0.73349869     0.046017579    0.046017579    0.048218773    0.040911056    0.048922907    4019.679     
     30300   1.4373983      267.35608      0              267.35608      0.71581279     0.044341199    0.044341199    0.045857824    0.039418031    0.047747741    4019.679     
     30400   1.5321071      284.97192      0              284.97192      0.76297703     0.047262799    0.047262799    0.048883178    0.042029928    0.050875292    4019.679     
     30500   1.6183412      301.01146      0              301.01146      0.80592091     0.049922968    0.049922968    0.05163455     0.044395567    0.053738789    4019.679     
     30600   1.4443678      268.65242      0.37539355     269.02781      0.71928358     0.089937856    0.089937856    0.066909798    0.050427201    0.15247657     4019.679     
     30700   1.362918       253.50275      0.75098601     254.25373      0.67872222     0.11364611     0.11364611     0.12154632     0.17029547     0.04909653     4019.679     
     30800   1.5040284      279.74928      0.33237477     280.08166      0.74899407     0.089102352    0.089102352    0.065729406    0.043219425    0.15835823     4019.679     
     30900   1.5721396      292.41796      0              292.41796      0.78291287     0.04849773     0.04849773     0.050012434    0.044603727    0.050877027    4019.679     
     31000   1.5107747      281.00408      0              281.00408      0.75235364     0.046604731    0.046604731    0.048060312    0.042862722    0.048891158    4019.679     
     31100   1.4116572      262.56823      0.41530394     262.98354      0.70299393     0.091276877    0.091276877    0.13190965     0.040290554    0.10163043     4019.679     
     31200   1.4049063      261.31258      0              261.31258      0.69963208     0.04333888     0.04333888     0.04729178     0.039718632    0.043006229    4019.679     
     31300   1.5930326      296.30406      0.033174863    296.33724      0.79331743     0.062646168    0.062646168    0.07738737     0.061675194    0.048875939    4019.679     
     31400   1.5937833      296.44369      0.95369638     297.39738      0.79369127     0.14362839     0.14362839     0.16517609     0.12627184     0.13943724     4019.679     
     31500   1.4524083      270.14794      0              270.14794      0.72328766     0.044804231    0.044804231    0.049283649    0.04075519     0.044373854    4019.679     
     31600   1.4279483      265.59839      0.32921425     265.9276       0.71110679     0.10410676     0.10410676     0.14631294     0.065256923    0.10075042     4019.679     
     31700   1.5428219      286.96487      0.0002198374   286.96509      0.7683129      0.048693017    0.048693017    0.052543252    0.04498874     0.048547058    4019.679     
     31800   1.5978822      297.20609      0              297.20609      0.7957325      0.049291844    0.049291844    0.054175604    0.045288727    0.048411202    4019.679     
     31900   1.3658368      254.04565      0              254.04565      0.68017578     0.042133655    0.042133655    0.046308192    0.038711873    0.0413809      4019.679     
     32000   1.3361678      248.52721      0.35420453     248.88142      0.66540083     0.085302426    0.085302426    0.045966842    0.038901814    0.17103862     4019.679     
     32100   1.5145378      281.70403      0.16208827     281.86612      0.75422766     0.076555196    0.076555196    0.058190982    0.042921531    0.12855308     4019.679     
     32200   1.5861016      295.0149       0              295.0149       0.78986585     0.048928434    0.048928434    0.05399634     0.044837661    0.0479513      4019.679     
     32300   1.4987926      278.77542      0.37076391     279.14618      0.74638666     0.091336437    0.091336437    0.05412404     0.075758019    0.14412725     4019.679     
     32400   1.4039463      261.134        0.45033911     261.58434      0.69915396     0.093008535    0.093008535    0.18766378     0.041011104    0.050350716    4019.679     
     32500   1.5111896      281.08126      0              281.08126      0.75256028     0.046617531    0.046617531    0.052160999    0.044082162    0.043609432    4019.679     
     32600   1.6601011      308.77881      0.3223271      309.10113      0.82671702     0.10245574     0.10245574     0.14046178     0.087456107    0.079449347    4019.679     
     32700   1.5545169      289.14014      0              289.14014      0.77413693     0.047954102    0.047954102    0.055159719    0.045199128    0.043503458    4019.679     
     32800   1.4620439      271.94017      1.5625997      273.50277      0.72808613     0.13755865     0.13755865     0.055017881    0.059129457    0.2985286      4019.679     
     32900   1.4770277      274.72715      0.027144848    274.7543       0.73554793     0.057779332    0.057779332    0.059625425    0.06822568     0.04548689     4019.679     
     33000   1.5836416      294.55735      0.0023947122   294.55974      0.78864082     0.052481754    0.052481754    0.056840604    0.045693392    0.054911266    4019.679     
     33100   1.6962716      315.50652      0.2687593      315.77528      0.84472964     0.090733984    0.090733984    0.16526695     0.050417609    0.056517397    4019.679     
     33200   1.475824       274.50326      0              274.50326      0.73494848     0.045526564    0.045526564    0.052799816    0.042536227    0.041243648    4019.679     
     33300   1.4278841      265.58645      0              265.58645      0.71107482     0.044047704    0.044047704    0.051084696    0.041154504    0.039903912    4019.679     
     33400   1.5191951      282.57029      1.0337379      283.60402      0.75654695     0.1533165      0.1533165      0.097839945    0.26145529     0.10065427     4019.679     
     33500   1.5956763      296.79579      0              296.79579      0.79463397     0.049223796    0.049223796    0.057118409    0.046174516    0.044378463    4019.679     
     33600   1.415177       263.22292      11.367295      274.59021      0.70474676     0.43396395     0.43396395     0.59379672     0.54967838     0.15841674     4019.679     
     33700   1.3501606      251.12988      0.93903044     252.06891      0.67236915     0.1133684      0.1133684      0.098305533    0.19116154     0.050638115    4019.679     
     33800   1.4989312      278.80119      0              278.80119      0.74645567     0.046239379    0.046239379    0.050040908    0.045216451    0.04346078     4019.679     
     33900   1.5644664      290.99074      0.94452772     291.93527      0.77909168     0.14984219     0.14984219     0.18720583     0.08251611     0.17980463     4019.679     
     34000   1.5170915      282.17903      0              282.17903      0.7554994      0.046799595    0.046799595    0.047945572    0.04731766     0.045135555    4019.679     
     34100   1.4483495      269.39301      0              269.39301      0.72126643     0.044679026    0.044679026    0.045773076    0.045173616    0.043090386    4019.679     
     34200   1.4653742      272.5596       0.76475961     273.32436      0.72974459     0.10994004     0.10994004     0.20382869     0.069397079    0.056594366    4019.679     
     34300   1.6123924      299.90498      2.6726581      302.57764      0.80295845     0.23957765     0.23957765     0.074411874    0.26405058     0.3802705      4019.679     
     34400   1.6080809      299.10305      0              299.10305      0.80081139     0.049606457    0.049606457    0.051453836    0.053669566    0.04369597     4019.679     
     34500   1.4272244      265.46375      0              265.46375      0.71074631     0.044027354    0.044027354    0.046681942    0.046638349    0.038761771    4019.679     
     34600   1.4537738      270.40193      0.12567336     270.5276       0.72396768     0.07111935     0.07111935     0.080851165    0.087957754    0.044549131    4019.679     
     34700   1.5439676      287.17797      0              287.17797      0.76888347     0.047628675    0.047628675    0.050478697    0.050705808    0.041701519    4019.679     
     34800   1.5695203      291.93078      0              291.93078      0.78160852     0.048416931    0.048416931    0.0519215      0.051998597    0.041330698    4019.679     
     34900   1.4157518      263.32983      2.0533816      265.38321      0.70503302     0.14961672     0.14961672     0.24011673     0.10401418     0.10471925     4019.679     
     35000   1.3470302      250.54762      0              250.54762      0.67081024     0.041553504    0.041553504    0.044069859    0.044426965    0.036163689    4019.679     
     35100   1.5016066      279.29883      0              279.29883      0.74778804     0.046321913    0.046321913    0.049127028    0.049525114    0.040313598    4019.679     
     35200   1.537207       285.92051      0.74910871     286.66962      0.76551676     0.11149141     0.11149141     0.15926523     0.13102244     0.044186573    4019.679     
     35300   1.5054343      280.01078      0              280.01078      0.74969419     0.04643999     0.04643999     0.049662257    0.048958066    0.040699647    4019.679     
     35400   1.4524352      270.15296      0.3241646      270.47712      0.72330109     0.086980724    0.086980724    0.060940054    0.1216453      0.078356816    4019.679     
     35500   1.4749107      274.33339      0.17322005     274.50661      0.73449369     0.076339295    0.076339295    0.13347601     0.048302873    0.047239005    4019.679     
     35600   1.626275       302.48715      0              302.48715      0.8098719      0.050167713    0.050167713    0.053279553    0.052318732    0.044904854    4019.679     
     35700   1.5867338      295.13249      0.07125788     295.20375      0.79018071     0.068735373    0.068735373    0.085857746    0.052432251    0.06791612     4019.679     
     35800   1.4266024      265.34804      0              265.34804      0.71043652     0.044008164    0.044008164    0.047069236    0.045837519    0.039117737    4019.679     
     35900   1.4398929      267.82008      2.2789699      270.09905      0.7170551      0.20094951     0.20094951     0.35211656     0.13094919     0.11978277     4019.679     
     36000   1.5347715      285.46751      0              285.46751      0.7643039      0.047344992    0.047344992    0.049477921    0.048901896    0.043655159    4019.679     
     36100   1.5456068      287.48286      0.10917875     287.59204      0.76969977     0.072168769    0.072168769    0.11143228     0.049416716    0.055657315    4019.679     
     36200   1.4691697      273.26556      0              273.26556      0.7316347      0.045321291    0.045321291    0.047232298    0.04680034     0.041931234    4019.679     
     36300   1.2880223      239.57214      0              239.57214      0.64142474     0.039733213    0.039733213    0.041640059    0.042033492    0.035526087    4019.679     
     36400   1.3784217      256.38643      0.017390695    256.40382      0.68644292     0.052300161    0.052300161    0.048735104    0.054009454    0.054155927    4019.679     
     36500   1.5094348      280.75488      1.8017555      282.55663      0.75168642     0.14582352     0.14582352     0.051995099    0.26739127     0.1180842      4019.679     
     36600   1.5498825      288.27815      0.0028197992   288.28097      0.77182904     0.051749267    0.051749267    0.05056273     0.05395037     0.050734703    4019.679     
     36700   1.5012676      279.23577      0              279.23577      0.74761919     0.046311454    0.046311454    0.048540678    0.047569757    0.042823927    4019.679     
     36800   1.418449       263.83152      1.4618122      265.29333      0.70637623     0.1871792      0.1871792      0.062167461    0.39372316     0.10564697     4019.679     
     36900   1.4777609      274.86353      0              274.86353      0.73591307     0.045586315    0.045586315    0.047108752    0.047487967    0.042162228    4019.679     
     37000   1.6498482      306.87177      0              306.87177      0.82161117     0.050894905    0.050894905    0.052180497    0.053233441    0.047270777    4019.679     
     37100   1.5676991      291.59204      0              291.59204      0.78070158     0.04836075     0.04836075     0.049582331    0.050582846    0.044917075    4019.679     
     37200   1.4620086      271.93359      0              271.93359      0.72806852     0.045100383    0.045100383    0.046239607    0.04717267     0.041888872    4019.679     
     37300   1.4801963      275.31651      0              275.31651      0.73712587     0.045661442    0.045661442    0.046814839    0.047759509    0.042409979    4019.679     
     37400   1.5324561      285.03684      0.027367769    285.06421      0.76315085     0.059539239    0.059539239    0.069176721    0.059694204    0.049746792    4019.679     
     37500   1.5571915      289.63762      1.2696185      290.90724      0.77546887     0.13139962     0.13139962     0.17216788     0.17666744     0.045363538    4019.679     
     37600   1.4917886      277.47268      0              277.47268      0.74289875     0.046019045    0.046019045    0.047781191    0.047556512    0.042719432    4019.679     
     37700   1.3941767      259.31687      0              259.31687      0.6942888      0.04300789     0.04300789     0.044654733    0.044444756    0.03992418     4019.679     
     37800   1.4872891      276.63577      0              276.63577      0.74065801     0.045880242    0.045880242    0.047253903    0.047012404    0.043374418    4019.679     
     37900   1.6023992      298.04625      0.89128973     298.93754      0.79798194     0.11930654     0.11930654     0.074114947    0.053804726    0.22999996     4019.679     
     38000   1.5395693      286.3599       0              286.3599       0.76669317     0.047492996    0.047492996    0.047878423    0.048509371    0.046091195    4019.679     
     38100   1.4615429      271.84698      0              271.84698      0.72783662     0.045086018    0.045086018    0.045451911    0.046050882    0.04375526     4019.679     
     38200   1.478112       274.92884      0              274.92884      0.73608792     0.045597147    0.045597147    0.045967188    0.046572949    0.044251303    4019.679     
     38300   1.504413       279.82081      2.5240713      282.34488      0.74918558     0.16382727     0.16382727     0.35453919     0.048637304    0.088305315    4019.679     
     38400   1.547425       287.82105      0              287.82105      0.77060522     0.047735329    0.047735329    0.051148548    0.048580948    0.04347649     4019.679     
     38500   1.4720682      273.80468      0              273.80468      0.73307813     0.045410704    0.045410704    0.048657706    0.046215144    0.041359263    4019.679     
     38600   1.3453967      250.24378      0              250.24378      0.66999673     0.041503111    0.041503111    0.044470709    0.042238328    0.037800297    4019.679     
     38700   1.4734182      274.05578      0              274.05578      0.73375042     0.04545235     0.04545235     0.048702329    0.046257526    0.041397193    4019.679     
     38800   1.5758562      293.10925      0              293.10925      0.78476371     0.04861238     0.04861238     0.052088311    0.049473536    0.044275293    4019.679     
     38900   1.4789732      275.08901      8.4579587      283.54697      0.73651677     0.3435685      0.3435685      0.37211932     0.60380903     0.054777163    4019.679     
     39000   1.4675808      272.97003      0              272.97003      0.73084344     0.045272276    0.045272276    0.051225124    0.043597892    0.040993812    4019.679     
     39100   1.4461681      268.98727      0              268.98727      0.72018011     0.044611733    0.044611733    0.050477726    0.042961779    0.040395694    4019.679     
     39200   1.5598434      290.13086      0              290.13086      0.77678946     0.048118413    0.048118413    0.0544455      0.046338765    0.043570975    4019.679     
     39300   1.6207781      301.46473      0              301.46473      0.8071345      0.049998144    0.049998144    0.056572396    0.048148975    0.045273061    4019.679     
     39400   1.4707236      273.55458      1.3140448      274.86863      0.73240852     0.15341926     0.15341926     0.23886876     0.17268802     0.048701       4019.679     
     39500   1.4177343      263.69859      0.16691754     263.86551      0.70602032     0.074009759    0.074009759    0.10439984     0.038143876    0.079485559    4019.679     
     39600   1.5118473      281.20359      0              281.20359      0.7528878      0.046637819    0.046637819    0.056535857    0.03889236     0.04448524     4019.679     
     39700   1.559871       290.13601      2.2173131      292.35332      0.77680324     0.17302914     0.17302914     0.18269566     0.090535895    0.24585588     4019.679     
     39800   1.5475563      287.84548      0              287.84548      0.77067063     0.047739381    0.047739381    0.057572958    0.037833762    0.047811422    4019.679     
     39900   1.4930682      277.71069      0              277.71069      0.74353599     0.046058519    0.046058519    0.056193222    0.037427189    0.044555146    4019.679     
     40000   1.4466879      269.08396      1.3783867      270.46234      0.72043897     0.13147906     0.13147906     0.17537454     0.036566358    0.18249628     4019.679     
     40100   1.5270706      284.03513      0              284.03513      0.7604689      0.047107432    0.047107432    0.056143071    0.038339753    0.046839472    4019.679     
     40200   1.6600029      308.76054      0              308.76054      0.82666811     0.051208158    0.051208158    0.061030355    0.041677248    0.050916872    4019.679     
     40300   1.5146377      281.72261      0.11664043     281.83925      0.75427739     0.07203582     0.07203582     0.11705438     0.052520031    0.046533055    4019.679     
     40400   1.4141655      263.03478      1.4133883      264.44816      0.70424304     0.13156868     0.13156868     0.065411083    0.050803208    0.27849175     4019.679     
     40500   1.4896012      277.06582      0              277.06582      0.74180942     0.045951566    0.045951566    0.053914157    0.037802519    0.046138022    4019.679     
     40600   1.5596509      290.09506      0              290.09506      0.7766936      0.048112475    0.048112475    0.056449514    0.039580212    0.0483077      4019.679     
     40700   1.5243517      283.52942      0.11219014     283.64161      0.75911491     0.071848277    0.071848277    0.081844517    0.081777646    0.051922667    4019.679     
     40800   1.3334903      248.02919      0              248.02919      0.66406744     0.04113582     0.04113582     0.047889642    0.034178826    0.041338993    4019.679     
     40900   1.3857536      257.75016      0              257.75016      0.69009414     0.042748051    0.042748051    0.049766574    0.035518392    0.042959186    4019.679     
     41000   1.5087571      280.62882      1.1025925      281.73141      0.75134892     0.1449667      0.1449667      0.078424806    0.11968711     0.23678818     4019.679     
     41100   1.5474729      287.82997      0              287.82997      0.77062909     0.047736808    0.047736808    0.055000968    0.039307424    0.048902032    4019.679     
     41200   1.5058978      280.097        0              280.097        0.74992503     0.04645429     0.04645429     0.053523287    0.038251373    0.047588208    4019.679     
     41300   1.4031816      260.99178      1.9817401      262.97352      0.69877317     0.14737028     0.14737028     0.23263523     0.039117667    0.17035794     4019.679     
     41400   1.434955       266.90162      0              266.90162      0.71459604     0.044265827    0.044265827    0.051037744    0.036260367    0.045499371    4019.679     
     41500   1.6232166      301.9183       0              301.9183       0.80834885     0.050073367    0.050073367    0.057733739    0.041017615    0.051468748    4019.679     
     41600   1.5750794      292.96476      0.11629365     293.08106      0.78437687     0.073862714    0.073862714    0.056326172    0.038310492    0.12695148     4019.679     
     41700   1.4486827      269.45499      1.4183349      270.87332      0.72143236     0.13278682     0.13278682     0.051191367    0.2478714      0.099297701    4019.679     
     41800   1.4650749      272.50394      0.053743975    272.55768      0.72959555     0.062380867    0.062380867    0.066552552    0.063456176    0.057133872    4019.679     
     41900   1.5209397      282.89478      0              282.89478      0.75741575     0.046918304    0.046918304    0.053603752    0.037752143    0.049399017    4019.679     
     42000   1.5195969      282.64503      4.6576343      287.30266      0.75674706     0.20617629     0.20617629     0.21545045     0.19018213     0.2128963      4019.679     
     42100   1.5298093      284.54452      0.0037407299   284.54826      0.76183273     0.051727686    0.051727686    0.052359018    0.052949783    0.049874257    4019.679     
     42200   1.4987394      278.76554      0.13496978     278.90051      0.74636021     0.073460085    0.073460085    0.11819495     0.043196452    0.058988858    4019.679     
     42300   1.4965146      278.35172      0              278.35172      0.74525225     0.046164833    0.046164833    0.049583537    0.040430218    0.048480745    4019.679     
     42400   1.5062312      280.15899      0              280.15899      0.75009102     0.046464572    0.046464572    0.049782055    0.040689342    0.048922319    4019.679     
     42500   1.5103733      280.92943      0              280.92943      0.75215377     0.04659235     0.04659235     0.049918956    0.040801238    0.049056856    4019.679     
     42600   1.5073395      280.36515      0.060297033    280.42545      0.75064297     0.064701714    0.064701714    0.05699549     0.041032864    0.09607679     4019.679     
     42700   1.5058315      280.08466      0              280.08466      0.749892       0.046452244    0.046452244    0.049543528    0.04057524     0.049237964    4019.679     
     42800   1.5055221      280.02711      0              280.02711      0.74973791     0.046442699    0.046442699    0.049533347    0.040566902    0.049227846    4019.679     
     42900   1.5230694      283.29091      0              283.29091      0.75847634     0.046984003    0.046984003    0.049923847    0.040952204    0.050075957    4019.679     
     43000   1.5746695      292.88852      0              292.88852      0.78417275     0.048575773    0.048575773    0.051666291    0.042360698    0.05170033     4019.679     
     43100   1.5639806      290.90038      0              290.90038      0.77884976     0.048246039    0.048246039    0.051315578    0.042073152    0.051349386    4019.679     
     43200   1.438013       267.47042      0              267.47042      0.71611894     0.044360163    0.044360163    0.046271095    0.038764489    0.048044905    4019.679     
[...]
   1989500   1.5260376      283.843        6.5900719      290.43307      0.75995447     2.0968947      2.0968947      1.9939835      2.2476292      2.0490712      1006.3029    
   1989600   1.5324148      285.02915      8.1294036      293.15855      0.76313025     2.9511239      2.9511239      3.29737        1.9245858      3.6314157      1006.3029    
   1989700   1.5527365      288.80899      3.0538892      291.86288      0.7732503      1.4659824      1.4659824      0.92529597     1.9470678      1.5255833      1006.3029    
   1989800   1.4577431      271.14022      5.2433196      276.38354      0.72594438     1.691413       1.691413       1.3737587      2.3743465      1.3261338      1006.3029    
   1989900   1.3956346      259.58803      4.9432804      264.53131      0.6950148      2.1229545      2.1229545      2.4279863      2.8241899      1.1166872      1006.3029    
   1990000   1.5167413      282.11389      10.562929      292.67682      0.75532501     3.1463029      3.1463029      3.0936152      3.2599226      3.085371       1006.3029    
   1990100   1.6155389      300.49024      11.995178      312.48542      0.80452542     3.0632396      3.0632396      3.2506813      3.1957899      2.7432477      1006.3029    
   1990200   1.5046144      279.85828      15.700218      295.5585       0.7492859      3.4511905      3.4511905      3.3715224      4.3176335      2.6644157      1006.3029    
   1990300   1.4842624      276.0728       5.280459       281.35326      0.73915075     1.6793659      1.6793659      2.4129618      0.74531396     1.8798218      1006.3029    
   1990400   1.4496418      269.63337      13.153094      282.78647      0.72190997     3.6734565      3.6734565      3.6721717      3.3373071      4.0108908      1006.3029    
   1990500   1.541392       286.69892      6.3371911      293.03611      0.76760085     2.319366       2.319366       1.50882        3.2782965      2.1709814      1006.3029    
   1990600   1.4709782      273.60194      17.743427      291.34536      0.73253531     4.3097259      4.3097259      5.8394154      3.2526465      3.8371157      1006.3029    
   1990700   1.5427326      286.94826      4.6043277      291.55259      0.76826843     2.2673372      2.2673372      2.8500151      2.2285105      1.723486       1006.3029    
   1990800   1.4524497      270.15565      20.148627      290.30428      0.7233083      4.4339259      4.4339259      2.9654167      5.5018109      4.8345502      1006.3029    
   1990900   1.5208541      282.87887      9.2790526      292.15792      0.75737315     2.463233       2.463233       1.9549735      2.0596675      3.3750581      1006.3029    
   1991000   1.4878204      276.7346       11.38636       288.12096      0.74092263     2.7271506      2.7271506      2.511188       3.2558132      2.4144507      1006.3029    
   1991100   1.4397114      267.78631      15.539644      283.32596      0.71696469     3.3382091      3.3382091      4.3779431      4.3896182      1.247066       1006.3029    
   1991200   1.4934203      277.77618      18.418565      296.19474      0.74371132     4.7658848      4.7658848      3.9810442      3.896612       6.4199981      1006.3029    
   1991300   1.5997018      297.54454      6.6996627      304.2442       0.79663867     2.4889923      2.4889923      1.7886183      2.8304147      2.847944       1006.3029    
   1991400   1.4343364      266.78657      13.002709      279.78928      0.71428802     3.1833511      3.1833511      2.0572879      3.4867742      4.0059911      1006.3029    
   1991500   1.4363331      267.15796      3.9632605      271.12122      0.71528236     1.8031589      1.8031589      1.8224066      1.5529206      2.0341495      1006.3029    
   1991600   1.540235       286.48371      13.152713      299.63642      0.76702465     3.479488       3.479488       2.0885674      3.3214312      5.0284654      1006.3029    
   1991700   1.6656162      309.80462      10.594259      320.39888      0.8294635      2.7296754      2.7296754      2.2260084      3.4509325      2.5120853      1006.3029    
   1991800   1.5151846      281.82434      14.120113      295.94446      0.75454978     3.4194727      3.4194727      2.9981383      5.1388271      2.1214526      1006.3029    
   1991900   1.4359179      267.08072      14.445303      281.52602      0.71507556     4.0409162      4.0409162      3.9283807      2.3456288      5.8487393      1006.3029    
   1992000   1.5333901      285.21057      1.4688374      286.6794       0.76361597     0.82624952     0.82624952     0.72926754     0.73062899     1.018852       1006.3029    
   1992100   1.5616261      290.46245      8.9416689      299.40411      0.77767723     2.5923314      2.5923314      2.3642639      1.8745627      3.5381676      1006.3029    
   1992200   1.6312961      303.42107      8.7093533      312.13042      0.81237235     2.9254547      2.9254547      3.5618998      1.7644408      3.4500234      1006.3029    
   1992300   1.5165322      282.07498      11.19375       293.26873      0.75522084     3.2097499      3.2097499      2.9336263      3.1638856      3.5317378      1006.3029    
   1992400   1.3910917      258.74306      14.699415      273.44248      0.69275251     3.9493025      3.9493025      3.989513       3.513445       4.3449496      1006.3029    
   1992500   1.4965972      278.36708      8.2113921      286.57847      0.74529339     2.773237       2.773237       3.499891       2.4528162      2.3670038      1006.3029    
   1992600   1.6452293      306.01265      4.6612403      310.67389      0.81931099     1.6425311      1.6425311      1.1653585      2.2388867      1.5233482      1006.3029    
   1992700   1.5738753      292.74081      6.2481491      298.98896      0.78377728     2.4062817      2.4062817      2.9703106      1.3629169      2.8856175      1006.3029    
   1992800   1.4121813      262.66572      2.9681272      265.63385      0.70325493     1.1361642      1.1361642      1.5060363      1.4959284      0.40652796     1006.3029    
   1992900   1.4475056      269.23604      9.9213225      279.15736      0.72084616     2.9261172      2.9261172      4.5751473      1.9734299      2.2297744      1006.3029    
   1993000   1.5912298      295.96875      6.8374476      302.8062       0.79241967     1.9400165      1.9400165      0.96534774     2.5357408      2.318961       1006.3029    
   1993100   1.5368067      285.84604      13.093976      298.94002      0.76531738     3.3151982      3.3151982      3.5416508      3.3423313      3.0616125      1006.3029    
   1993200   1.4732729      274.02876      5.0550962      279.08385      0.73367806     2.1593684      2.1593684      2.9693659      1.5726198      1.9361195      1006.3029    
   1993300   1.291397       240.19984      9.7391784      249.93902      0.64310533     2.6849728      2.6849728      1.5136045      2.0866769      4.4546372      1006.3029    
   1993400   1.4360806      267.11099      1.5245265      268.63552      0.71515661     1.1632232      1.1632232      1.6487419      1.3619285      0.47899933     1006.3029    
   1993500   1.5543491      289.10893      11.979248      301.08818      0.77405337     2.9172029      2.9172029      2.1059462      3.954886       2.6907764      1006.3029    
   1993600   1.5725927      292.50223      5.0768774      297.57911      0.78313851     2.0615653      2.0615653      2.2107856      1.8541532      2.1197571      1006.3029    
   1993700   1.4530792      270.27273      3.4501446      273.72287      0.72362176     1.7402485      1.7402485      2.0288241      1.2582322      1.9336893      1006.3029    
   1993800   1.4036547      261.07978      8.1517723      269.23155      0.69900878     2.7587865      2.7587865      3.1238535      1.51996        3.6325461      1006.3029    
   1993900   1.5695751      291.94097      9.4048748      301.34584      0.78163579     3.5362541      3.5362541      4.3497475      3.8810577      2.3779571      1006.3029    
   1994000   1.6269075      302.60479      6.679037       309.28383      0.81018686     2.6903778      2.6903778      2.0216906      4.4248516      1.6245912      1006.3029    
   1994100   1.4612752      271.79718      21.236453      293.03363      0.72770329     5.1387385      5.1387385      6.0115563      4.3134652      5.0911941      1006.3029    
   1994200   1.4742511      274.21071      13.755979      287.96669      0.73416523     3.5434658      3.5434658      3.3164053      3.1301619      4.1838302      1006.3029    
   1994300   1.5220221      283.0961       5.6849581      288.78106      0.75795476     2.3119086      2.3119086      2.7666502      2.0175596      2.1515158      1006.3029    
   1994400   1.4054343      261.41078      14.960915      276.3717       0.699895       3.1980586      3.1980586      3.5273255      3.7377626      2.3290878      1006.3029    
   1994500   1.410286       262.3132       12.174586      274.48778      0.7023111      3.9381397      3.9381397      4.0723979      3.9639832      3.7780381      1006.3029    
   1994600   1.5988664      297.38915      6.8416124      304.23076      0.79622263     1.9930983      1.9930983      2.4897587      1.7934099      1.6961264      1006.3029    
   1994700   1.6043238      298.40423      3.367171       301.7714       0.79894038     1.2447838      1.2447838      0.60224849     1.1786283      1.9534745      1006.3029    
   1994800   1.4496884      269.64204      4.33459        273.97663      0.72193318     1.8546317      1.8546317      2.101334       1.2516023      2.2109588      1006.3029    
   1994900   1.451365       269.95389      5.8024608      275.75635      0.72276812     2.3641815      2.3641815      2.7204625      1.8186599      2.553422       1006.3029    
   1995000   1.5249831      283.64686      5.5120008      289.15886      0.75942934     2.4535545      2.4535545      2.3606739      2.8341796      2.16581        1006.3029    
   1995100   1.518108       282.36808      12.285319      294.6534       0.75600558     2.5848149      2.5848149      1.4377891      4.1577705      2.1588851      1006.3029    
   1995200   1.4337485      266.67722      16.920082      283.5973       0.71399524     4.7511844      4.7511844      3.4162693      6.358378       4.478906       1006.3029    
   1995300   1.2719237      236.5778       14.893378      251.47118      0.63340777     3.8304785      3.8304785      2.6925718      4.7326187      4.066245       1006.3029    
   1995400   1.3789427      256.48335      14.459839      270.94319      0.68670241     3.8073021      3.8073021      3.4345903      3.6007681      4.3865478      1006.3029    
   1995500   1.508497       280.58045      15.029771      295.61022      0.75121941     3.6526534      3.6526534      3.7251301      3.7592158      3.4736144      1006.3029    
   1995600   1.5569094      289.58514      8.1508611      297.736        0.77532836     1.9212941      1.9212941      1.9106178      1.9435222      1.9097424      1006.3029    
   1995700   1.4864538      276.48041      5.005019       281.48543      0.74024207     1.7976406      1.7976406      2.1662464      1.4015804      1.8250949      1006.3029    
   1995800   1.3525652      251.57713      19.850973      271.4281       0.67356661     4.2048539      4.2048539      4.40185        4.1729804      4.0397314      1006.3029    
   1995900   1.5809354      294.05399      10.196415      304.2504       0.78729313     3.094592       3.094592       4.7113574      2.6159242      1.9564943      1006.3029    
   1996000   1.6809225      312.65159      3.128028       315.77962      0.83708591     1.189632       1.189632       1.6389941      1.1300322      0.79986962     1006.3029    
   1996100   1.5180658      282.36025      5.8743933      288.23464      0.75598459     1.5196363      1.5196363      1.8341191      1.8027575      0.92203226     1006.3029    
   1996200   1.4420794      268.22677      13.859375      282.08614      0.71814396     3.1533173      3.1533173      4.2022234      2.4747778      2.7829508      1006.3029    
   1996300   1.4795303      275.19263      17.470974      292.66361      0.7367942      3.7609126      3.7609126      3.2526091      4.7215914      3.3085374      1006.3029    
   1996400   1.6294386      303.07558      2.5020001      305.57758      0.81144733     1.4157052      1.4157052      0.77565712     1.281274       2.1901844      1006.3029    
   1996500   1.4169494      263.55258      13.232076      276.78466      0.7056294      3.6379493      3.6379493      3.5969163      2.2295658      5.0873658      1006.3029    
   1996600   1.3661898      254.11131      10.302873      264.41418      0.68035157     2.7737145      2.7737145      1.4694574      2.1881893      4.6634967      1006.3029    
   1996700   1.5142755      281.65525      6.1762785      287.83153      0.75409705     1.8165323      1.8165323      2.4445069      1.6303698      1.3747203      1006.3029    
   1996800   1.5407833      286.58568      10.61445       297.20013      0.76729768     3.317967       3.317967       4.0177767      4.1490129      1.7871115      1006.3029    
   1996900   1.5312639      284.81508      7.7693771      292.58446      0.76255712     2.2883526      2.2883526      1.6431321      2.9931311      2.2287947      1006.3029    
   1997000   1.4639602      272.2966       8.0977043      280.3943       0.72904043     2.4896774      2.4896774      1.8577033      2.6980973      2.9132314      1006.3029    
   1997100   1.4738444      274.13506      7.9497491      282.08481      0.73396267     2.7834005      2.7834005      3.090566       2.6897816      2.5698539      1006.3029    
   1997200   1.6576178      308.31691      18.099796      326.41671      0.82548036     3.3245775      3.3245775      4.0385598      3.5067803      2.4283924      1006.3029    
   1997300   1.6463903      306.22859      9.2437105      315.4723       0.81988913     2.3362004      2.3362004      1.3799681      3.2572022      2.371431       1006.3029    
   1997400   1.487593       276.69231      5.9048832      282.59719      0.74080939     2.3427934      2.3427934      3.5605702      2.1679291      1.299881       1006.3029    
   1997500   1.4584727      271.27592      8.5197856      279.79571      0.7263077      2.4911221      2.4911221      3.7837927      1.7952067      1.894367       1006.3029    
   1997600   1.5846711      294.74882      1.6517473      296.40056      0.78915346     1.0964664      1.0964664      1.78096        0.62894278     0.87949627     1006.3029    
   1997700   1.5729931      292.57672      8.4312904      301.00802      0.78333795     2.4476061      2.4476061      1.6871361      3.6437483      2.0119339      1006.3029    
   1997800   1.4376707      267.40675      2.3111174      269.71787      0.71594846     0.93631264     0.93631264     0.64387971     0.72507997     1.4399782      1006.3029    
   1997900   1.4121038      262.65132      0.59249217     263.24381      0.70321637     0.63571568     0.63571568     0.47953297     0.61743679     0.81017727     1006.3029    
   1998000   1.5086211      280.60352      8.9966249      289.60015      0.75128118     2.0817745      2.0817745      1.3858834      3.1678687      1.6915713      1006.3029    
   1998100   1.5692661      291.8835       2.8200979      294.7036       0.78148194     1.4072838      1.4072838      0.55919194     1.2104811      2.4521783      1006.3029    
   1998200   1.4954552      278.15466      9.2139892      287.36865      0.74472465     3.1526877      3.1526877      5.2730606      2.46607        1.7189326      1006.3029    
   1998300   1.4787456      275.04668      6.8325814      281.87926      0.73640342     2.2041226      2.2041226      2.9760716      1.2570397      2.3792566      1006.3029    
   1998400   1.437614       267.3962       9.4099384      276.80614      0.71592021     2.2675969      2.2675969      3.3511466      1.6971039      1.7545402      1006.3029    
   1998500   1.4978738      278.60452      9.3401852      287.9447       0.7459291      2.0150756      2.0150756      1.2157082      2.6146131      2.2149056      1006.3029    
   1998600   1.5896075      295.66699      9.2695233      304.93651      0.79161175     3.0794217      3.0794217      1.7429749      2.975946       4.5193441      1006.3029    
   1998700   1.5212794      282.95797      13.611487      296.56946      0.75758493     3.5745891      3.5745891      3.5439187      3.5902118      3.5896369      1006.3029    
   1998800   1.401004       260.58674      8.8112161      269.39795      0.69768872     2.2326543      2.2326543      2.2755488      2.7986728      1.6237413      1006.3029    
   1998900   1.4531554      270.28691      3.6699134      273.95682      0.72365972     1.2806781      1.2806781      0.87226019     1.6288741      1.3409         1006.3029    
   1999000   1.6017105      297.91814      13.096185      311.01433      0.79763894     3.2532655      3.2532655      3.9364804      4.238589       1.5847272      1006.3029    
   1999100   1.6061302      298.74021      9.5774477      308.31766      0.79983992     2.563586       2.563586       2.8098554      2.0748184      2.8060843      1006.3029    
   1999200   1.5201887      282.7551       7.2096707      289.96477      0.75704178     2.9879089      2.9879089      2.6101476      2.858258       3.495321       1006.3029    
   1999300   1.4772527      274.76901      6.3097169      281.07872      0.73565999     2.102843       2.102843       2.084234       1.3599325      2.8643624      1006.3029    
   1999400   1.4727411      273.92984      10.674942      284.60479      0.73341324     2.2186646      2.2186646      1.8862404      1.5862662      3.1834873      1006.3029    
   1999500   1.6085737      299.19471      11.535535      310.73025      0.80105679     3.7833107      3.7833107      2.985068       3.3598876      5.0049767      1006.3029    
   1999600   1.6564924      308.10758      6.5759472      314.68353      0.8249199      1.8406572      1.8406572      2.8261148      0.5964355      2.0994213      1006.3029    
   1999700   1.4390258      267.65881      7.4062225      275.06503      0.71662331     2.0441351      2.0441351      2.5051439      1.3789111      2.2483505      1006.3029    
   1999800   1.4301325      266.00464      10.163856      276.1685       0.7121945      3.2691841      3.2691841      3.3502201      3.3214443      3.1358877      1006.3029    
   1999900   1.5545483      289.14598      6.5793563      295.72534      0.77415257     2.0623414      2.0623414      1.3997545      2.48881        2.2984596      1006.3029    
   2000000   1.5882528      295.41502      6.5906731      302.0057       0.79093714     2.9263806      2.9263806      2.4235511      4.0898473      2.2657435      862.77893    
Loop time of 196.918 on 4 procs for 100000 steps with 125 atoms

Performance: 4387.617 tau/day, 507.826 timesteps/s, 63.478 katom-step/s
66.4% CPU use with 4 MPI tasks x 1 OpenMP threads

MPI task timing breakdown:
Section |  min time  |  avg time  |  max time  |%varavg| %total
---------------------------------------------------------------
Pair    | 109.98     | 143.89     | 175.06     | 250.8 | 73.07
Neigh   | 0.0018846  | 0.002186   | 0.0024707  |   0.5 |  0.00
Comm    | 20.049     | 51.183     | 85.087     | 420.2 | 25.99
Output  | 0.19512    | 0.21533    | 0.23053    |   2.8 |  0.11
Modify  | 1.1707     | 1.2337     | 1.2872     |   3.8 |  0.63
Other   |            | 0.3916     |            |       |  0.20

Nlocal:          31.25 ave          32 max          30 min
Histogram: 1 0 0 0 0 1 0 0 0 2
Nghost:         208.25 ave         212 max         205 min
Histogram: 1 1 0 0 0 0 0 1 0 1
Neighs:         204.25 ave         217 max         197 min
Histogram: 1 1 0 1 0 0 0 0 0 1

Total # of neighbors = 817
Ave neighs/atom = 6.536
Neighbor list builds = 60
Dangerous builds = 0
next i
jump SELF loop_start
Total wall time: 1:35:00
