LAMMPS data file for polygons
1 atoms
1 bodies
1 atom types
-2 2 xlo xhi
-2 2 ylo yhi
-2 2 zlo zhi

Atoms

1 1 1 1 0 0 0

Bodies

1 3 119
12 18 10
0.8818894733156659 0.6173226313209667 0.6173226313209663 0 0 0
-0.7274157573144808 1.4548315146289619 0.0 
-0.7274157573144808 0.727415757314481 1.2599210498948732 
-0.7274157573144808 -0.7274157573144807 1.2599210498948732 
-0.7274157573144808 -1.4548315146289619 0.0
-0.7274157573144808 -0.7274157573144816 -1.2599210498948727 
-0.7274157573144808 0.7274157573144799 -1.2599210498948736 
0.7274157573144808 1.4548315146289619 0.0 
0.7274157573144808 0.727415757314481 1.2599210498948732 
0.7274157573144808 -0.7274157573144807 1.2599210498948732 
0.7274157573144808 -1.4548315146289619 0.0
0.7274157573144808 -0.7274157573144816 -1.2599210498948727 
0.7274157573144808 0.7274157573144799 -1.2599210498948736 
0 1 
0 5 
0 6 
1 2 
1 7 
2 3 
2 8 
3 4 
3 9 
4 5 
4 10 
5 11 
6 7 
6 11 
7 8 
8 9 
9 10 
10 11
0 6 11 5 
4 5 11 10 
0 5 4 3
0 3 2 1
3 4 10 9 
2 3 9 8 
6 7 8 9 
6 9 10 11 
0 1 7 6 
1 2 8 7
0.3