LAMMPS (2 Aug 2023 - Update 1)
OMP_NUM_THREADS environment is not set. Defaulting to 1 thread. (src/comm.cpp:98)
  using 1 OpenMP thread(s) per MPI task
# 3d rounded 3d

variable    r     index 5
variable    steps index 100000

units       lj
dimension   3
newton on

neighbor     1.0 bin
neigh_modify every 1 delay 0 check yes

atom_style  body rounded/polyhedron 1 20

read_data   data.3d
Reading data file ...
  orthogonal box = (-2 -2 -2) to (2 2 2)
  1 by 2 by 2 MPI processor grid
  reading atoms ...
  1 atoms
  1 bodies
  read_data CPU = 0.003 seconds

replicate   $r $r $r
replicate   5 $r $r
replicate   5 5 $r
replicate   5 5 5
Replication is creating a 5x5x5 = 125 times larger system...
  orthogonal box = (-2 -2 -2) to (18 18 18)
  1 by 2 by 2 MPI processor grid
  125 atoms
  replicate CPU = 0.002 seconds

change_box all x final -11 11 y final -11 11 z final -11 11
Changing box ...
  orthogonal box = (-11 -2 -2) to (11 18 18)
  orthogonal box = (-11 -11 -2) to (11 11 18)
  orthogonal box = (-11 -11 -11) to (11 11 11)

velocity all create 3 64 rot yes dist gaussian
set atom * quat/random 4325
Setting atom values ...
  125 settings made for quat/random

variable cut_inner  equal 0.0
variable k_n        equal 100000
variable k_na       equal 0
variable c_n        equal 0
variable c_t        equal 0
variable mu         equal 0
variable A_ua       equal 1

pair_style body/rounded/polyhedron ${c_n} ${c_t} ${mu} ${A_ua} ${cut_inner}
pair_style body/rounded/polyhedron 0 ${c_t} ${mu} ${A_ua} ${cut_inner}
pair_style body/rounded/polyhedron 0 0 ${mu} ${A_ua} ${cut_inner}
pair_style body/rounded/polyhedron 0 0 0 ${A_ua} ${cut_inner}
pair_style body/rounded/polyhedron 0 0 0 1 ${cut_inner}
pair_style body/rounded/polyhedron 0 0 0 1 0
pair_coeff * * ${k_n} ${k_na}
pair_coeff * * 100000 ${k_na}
pair_coeff * * 100000 0

comm_modify vel yes

timestep     0.0001

compute 1 all temp/body
compute 1p all pressure 1

thermo_style custom step temp ke pe etotal c_1 press c_1p c_1p[1] c_1p[2] c_1p[3] vol

thermo       100
thermo_modify norm no

compute 10 all property/atom x y z quatw quati quatj quatk
dump mydump all custom 100 dump.quat id c_10[1] c_10[2] c_10[3] c_10[4] c_10[5] c_10[6] c_10[7]


fix def all deform 200000 x scale 0.95 y scale 0.95 z scale 0.95

fix          1 all nvt/body temp 1.5 1.5 0.01

# dump	     2 all image 1000 image.*.jpg type type # 	     zoom 1.5 adiam 1.5 body type 0 0 view 75 15

variable i loop 10

label loop_start
    run          100000
Generated 0 of 0 mixed pair_coeff terms from geometric mixing rule
Neighbor list info ...
  update: every = 1 steps, delay = 0 steps, check = yes
  max neighbors/atom: 2000, page size: 100000
  master list distance cutoff = 4.2531022
  ghost atom cutoff = 4.2531022
  binsize = 2.1265511, bins = 11 11 11
  1 neighbor lists, perpetual/occasional/extra = 1 0 0
  (1) pair body/rounded/polyhedron, perpetual
      attributes: half, newton on
      pair build: half/bin/atomonly/newton
      stencil: half/bin/3d
      bin: standard
Per MPI rank memory allocation (min/avg/max) = 6.804 | 6.897 | 6.96 Mbytes
   Step          Temp          KinEng         PotEng         TotEng          c_1           Press           c_1p         c_1p[1]        c_1p[2]        c_1p[3]         Volume    
         0   3              558            0              558            1.4939759      0.034936138    0.034936138    0.033950356    0.029745242    0.041112817    10648        
       100   3.0123594      560.29885      0              560.29885      1.5001308      0.035080068    0.035080068    0.034090225    0.029867787    0.041282194    10648        
       200   3.0606487      569.28066      0              569.28066      1.5241785      0.035642415    0.035642415    0.034636704    0.030346579    0.041943963    10648        
       300   3.0930475      575.30683      0              575.30683      1.5403128      0.036019711    0.036019711    0.035003354    0.030667816    0.042387964    10648        
       400   2.9667026      551.80668      0              551.80668      1.477394       0.034548377    0.034548377    0.033573536    0.029415096    0.0406565      10648        
       500   2.8505721      530.20641      0              530.20641      1.419562       0.033195993    0.033195993    0.032259312    0.028263653    0.039065016    10648        
       600   3.0287557      563.34856      0              563.34856      1.508296       0.035271009    0.035271009    0.034275777    0.030030357    0.041506892    10648        
       700   3.2883909      611.64072      0              611.64072      1.6375923      0.03829456     0.03829456     0.037214014    0.032604662    0.045065005    10648        
       800   3.039049       565.26312      0              565.26312      1.513422       0.035390879    0.035390879    0.034392265    0.030132417    0.041647955    10648        
       900   2.7972185      520.28264      10.943452      531.22609      1.397298       0.33154217     0.33164286     0.031126374    0.020779883    0.94302232     10648        
      1000   2.9060147      540.51873      0              540.51873      1.4796282      0.033841644    0.034600621    0.035077528    0.029519135    0.039205201    10648        
      1100   3.0325761      564.05915      0              564.05915      1.5440682      0.035315499    0.036107531    0.036605208    0.030797575    0.04091981     10648        
      1200   2.9703556      552.48613      0              552.48613      1.5374671      0.034590917    0.035953165    0.036094321    0.030741987    0.041023186    10648        
      1300   2.6754727      497.63792      0              497.63792      1.3848346      0.031156895    0.032383905    0.032511048    0.027680228    0.036960438    10648        
      1400   2.6071598      484.93172      6.2067278      491.13845      1.3516496      0.14062145     0.14186797     0.35561527     0.029340141    0.040648508    10648        
      1500   2.9640379      551.31105      0.076657695    551.38771      1.5459085      0.046931387    0.048564605    0.03527668     0.064124152    0.046292982    10648        
      1600   2.9341853      545.75847      0              545.75847      1.5481388      0.034169701    0.036202719    0.036193469    0.029821233    0.042593455    10648        
      1700   2.7738378      515.93384      2.5202596      518.4541       1.4682589      0.1032121      0.10524446     0.23503049     0.033471148    0.047231748    10648        
      1800   2.6811373      498.69154      2.6181057      501.30964      1.4288604      0.098364617    0.10055519     0.038974946    0.028613836    0.23407679     10648        
      1900   2.8365841      527.60465      0.72723178     528.33188      1.5584678      0.076609751    0.080020914    0.042519852    0.13649937     0.061043522    10648        
      2000   2.9818774      554.6292       0              554.6292       1.6578398      0.034725094    0.038768042    0.039882862    0.033412382    0.043008882    10648        
      2100   2.6813203      498.72558      0.28811939     499.0137       1.4910034      0.051664591    0.055306226    0.093009745    0.033605605    0.039303329    10648        
      2200   2.5997347      483.55065      0.010356677    483.56101      1.4479798      0.034507489    0.038093126    0.034372807    0.031202705    0.048703867    10648        
      2300   2.676061       497.74734      0.021039328    497.76838      1.5002012      0.037563796    0.041481766    0.054250687    0.030858857    0.039335754    10648        
      2400   2.7717695      515.54914      0              515.54914      1.5619687      0.032278308    0.036526128    0.03708489     0.031900807    0.040592689    10648        
      2500   2.7000949      502.21764      0              502.21764      1.5215781      0.031443629    0.035581606    0.036125918    0.031066947    0.039551952    10648        
      2600   2.429071       451.80721      0              451.80721      1.3688487      0.028287454    0.032010078    0.032499755    0.027941062    0.035589418    10648        
      2700   2.5138479      467.57571      0.092422928    467.66813      1.4374306      0.042747877    0.04708701     0.073240417    0.031056149    0.036964464    10648        
      2800   2.7302182      507.82058      0.93440187     508.75498      1.572368       0.073105479    0.078080363    0.15764869     0.032192441    0.044399955    10648        
      2900   2.6771041      497.94137      0              497.94137      1.5413536      0.031175893    0.036044051    0.035912768    0.031303872    0.040915512    10648        
      3000   2.5301627      470.61026      0              470.61026      1.4609514      0.029464704    0.034163871    0.034173291    0.029464847    0.038853476    10648        
      3100   2.5267628      469.97788      0              469.97788      1.4589883      0.029425112    0.034117964    0.034127372    0.029425113    0.038801408    10648        
      3200   2.9026918      539.90068      0.012162268    539.91284      1.6803534      0.03748912     0.042980688    0.041854359    0.042875491    0.044212215    10648        
      3300   2.8790827      535.50938      0.20329542     535.71268      1.6646335      0.053073517    0.058472416    0.095486536    0.033096821    0.046833892    10648        
      3400   2.5797056      479.82524      0.37534541     480.20058      1.4908424      0.084587691    0.089408904    0.041656268    0.029435742    0.1971347      10648        
      3500   2.4712784      459.65778      0.044890991    459.70267      1.450625       0.036107671    0.041251088    0.034848602    0.050476204    0.038428458    10648        
      3600   2.5606134      476.2741       0.0038902357   476.27799      1.5097468      0.032390687    0.037876309    0.036351688    0.029384283    0.047892956    10648        
      3700   2.7302273      507.82227      0.2969145      508.11919      1.6105075      0.080558777    0.086425437    0.037502958    0.033510366    0.18826299     10648        
      3800   2.5848918      480.78988      0.17602818     480.96591      1.5308663      0.047645789    0.053342551    0.036935054    0.028822926    0.094269674    10648        
      3900   2.3031443      428.38484      1.0618876      429.44672      1.3708663      0.094243693    0.099479964    0.21881864     0.032584625    0.047036629    10648        
      4000   2.440414       453.917        1.0409817      454.95798      1.4545761      0.088124805    0.093720045    0.036498707    0.095549392    0.14911203     10648        
      4100   2.6033594      484.22485      0.29372428     484.51857      1.5554991      0.077380947    0.083438677    0.035707277    0.14751605     0.067092707    10648        
      4200   2.5675508      477.56444      0.070347703    477.63479      1.5305474      0.041280598    0.047171846    0.037408741    0.063747909    0.040358889    10648        
      4300   2.4738573      460.13745      0              460.13745      1.4747013      0.028809007    0.034485407    0.03461692     0.028831939    0.040007362    10648        
      4400   2.4506111      455.81366      3.4879425      459.3016       1.4626342      0.1285887      0.13425363     0.18652637     0.12028428     0.095950244    10648        
      4500   2.7656011      514.4018       0.074650053    514.47645      1.6611464      0.044401635    0.051040526    0.073876686    0.033734211    0.045510681    10648        
      4600   2.8202878      524.57353      0.012827418    524.58636      1.6968953      0.037675626    0.044513646    0.041267474    0.04625635     0.046017116    10648        
      4700   2.4832087      461.87682      0.0056368988   461.88246      1.4941045      0.031850102    0.037871339    0.036391698    0.028585198    0.048637122    10648        
      4800   2.3558183      438.18221      0              438.18221      1.4441614      0.027434398    0.033771242    0.034662786    0.028940988    0.037709953    10648        
      4900   2.4500279      455.7052       0              455.7052       1.504343       0.028531505    0.03517857     0.036261974    0.029741734    0.039532001    10648        
      5000   2.5821377      480.27761      0.11665669     480.39427      1.6077739      0.044034601    0.051561896    0.044500624    0.069988506    0.040196557    10648        
      5100   2.4527269      456.2072       0.19323849     456.40043      1.5335437      0.044702903    0.052001385    0.03637375     0.071875766    0.047754641    10648        
      5200   2.1673287      403.12315      0              403.12315      1.3676167      0.025239365    0.03198127     0.032605134    0.027552149    0.035786526    10648        
      5300   2.2907452      426.0786       0              426.0786       1.4476245      0.026676597    0.033852225    0.034254454    0.029225821    0.0380764      10648        
      5400   2.4423567      454.27834      0.0056803784   454.28402      1.543462       0.031168072    0.038819256    0.036923306    0.032263563    0.0472709      10648        
      5500   2.4177304      449.69785      0.039942852    449.73779      1.5299837      0.059192246    0.066815028    0.10406144     0.039624565    0.056759081    10648        
      5600   2.3165681      430.88167      0              430.88167      1.4700484      0.026977315    0.0343766      0.034467219    0.029884468    0.038778113    10648        
      5700   2.2266505      414.15699      0.08573555     414.24273      1.4145681      0.041545396    0.048694419    0.055459075    0.052648093    0.03797609     10648        
      5800   2.2196182      412.84899      0.85965956     413.70865      1.4268158      0.065308127    0.072825451    0.034886385    0.040382789    0.14320718     10648        
      5900   2.4455148      454.86576      0.012725368    454.87848      1.5750583      0.038190117    0.046543393    0.049369418    0.034278577    0.055982184    10648        
      6000   2.4316264      452.2825       0.3918802      452.67438      1.5788876      0.061137538    0.069742096    0.041630121    0.12700966     0.040586507    10648        
      6100   2.2093305      410.93548      0              410.93548      1.4350404      0.025728492    0.033557951    0.034162315    0.03050651     0.036005027    10648        
      6200   2.1882238      407.00963      0.14948206     407.15911      1.415436       0.039446281    0.047063092    0.049604322    0.057034082    0.034550872    10648        
      6300   2.3671622      440.29217      2.5913264      442.8835       1.5373619      0.1763492      0.1847334      0.057784513    0.44628654     0.050129166    10648        
      6400   2.4139303      448.99103      0.64923738     449.64027      1.5791382      0.063502363    0.07231886     0.037196168    0.049257938    0.13050247     10648        
      6500   2.3351874      434.34486      0              434.34486      1.5262678      0.027194143    0.035691274    0.037041463    0.031665331    0.038367027    10648        
      6600   2.2373611      416.14917      0              416.14917      1.462329       0.026054919    0.034196086    0.035489713    0.030344478    0.036754066    10648        
      6700   2.1708162      403.77182      0.19957086     403.97139      1.4618375      0.051827135    0.060731747    0.070615562    0.067710581    0.043869099    10648        
      6800   2.3297386      433.33138      0.44912627     433.78051      1.5880995      0.084190565    0.094197062    0.065274298    0.088150528    0.12916636     10648        
      6900   2.3726204      441.30739      0.12824366     441.43564      1.6242246      0.040680663    0.051032561    0.067735748    0.037333829    0.048028106    10648        
      7000   2.0473198      380.80148      1.9799224      382.7814       1.40477        0.12983103     0.13883931     0.14226616     0.031616808    0.24263495     10648        
      7100   2.056014       382.41861      0              382.41861      1.4211461      0.023943063    0.033233037    0.033559435    0.030776211    0.035363465    10648        
      7200   2.2086994      410.81809      0              410.81809      1.5266844      0.025721143    0.035701016    0.036051654    0.033060437    0.037990957    10648        
      7300   2.2538103      419.20872      0.18220343     419.39092      1.5578655      0.045105071    0.05528877     0.037046242    0.035117897    0.093702171    10648        
      7400   2.0931398      389.32401      0              389.32401      1.4579037      0.024375408    0.034092601    0.034710737    0.031623351    0.035943714    10648        
      7500   1.8654981      346.98264      0              346.98264      1.2972065      0.021724433    0.03033475     0.030743912    0.027989532    0.032270807    10648        
      7600   2.0783711      386.57702      0              386.57702      1.4472353      0.02420342     0.033843124    0.034082495    0.031084771    0.036362107    10648        
      7700   2.210421       411.1383       0.90594655     412.04425      1.5391168      0.060513705    0.070764257    0.030897901    0.13434313     0.047051742    10648        
      7800   2.1743225      404.42398      0.20884129     404.63282      1.5087474      0.038801352    0.048762108    0.069252559    0.039528803    0.037504961    10648        
      7900   2.0282311      377.25099      0              377.25099      1.4549558      0.023619521    0.034023665    0.032761104    0.032924735    0.036385156    10648        
      8000   2.0257283      376.78547      0              376.78547      1.4760047      0.023590375    0.034515888    0.033559986    0.032916528    0.037071151    10648        
      8100   2.1819981      405.85165      2.7419928      408.59364      1.5936918      0.087685465    0.099543231    0.033967626    0.032302803    0.23235927     10648        
      8200   2.1637101      402.45008      1.712632       404.16271      1.5906506      0.082959987    0.094959607    0.055139622    0.14887191     0.080867291    10648        
      8300   1.899652       353.33527      0              353.33527      1.3977875      0.022122168    0.032686803    0.032073383    0.031140398    0.034846629    10648        
      8400   1.9288179      358.76013      0.26529338     359.02543      1.4255231      0.041208725    0.052082299    0.039632387    0.035811954    0.080802556    10648        
      8500   2.059473       383.06197      0              383.06197      1.526662       0.023983344    0.035700492    0.035065068    0.034312892    0.037723516    10648        
      8600   2.0824282      387.33164      0              387.33164      1.5436784      0.024250666    0.036098415    0.035455908    0.034704893    0.038134443    10648        
      8700   2.0145234      374.70136      0              374.70136      1.4779887      0.02345989     0.034562282    0.034547913    0.032780013    0.03635892     10648        
      8800   1.8122841      337.08485      0              337.08485      1.3296413      0.021104736    0.031093228    0.031198947    0.029593905    0.032486831    10648        
      8900   1.7482259      325.17002      0.32356468     325.49358      1.3004032      0.040943857    0.050994606    0.086602559    0.033838382    0.032542876    10648        
      9000   1.9978159      371.59375      0              371.59375      1.5014395      0.023265324    0.035110672    0.035071962    0.034037885    0.03622217     10648        
      9100   2.058112       382.80883      0              382.80883      1.5490123      0.023967495    0.036223147    0.036661017    0.035189425    0.036818999    10648        
      9200   1.9932987      370.75356      0.38867212     371.14223      1.500514       0.075170814    0.087047124    0.053354378    0.12223486     0.085552131    10648        
      9300   1.8721757      348.22468      1.167782       349.39246      1.4179237      0.11808378     0.12943927     0.086000302    0.26637068     0.035946818    10648        
      9400   1.9140091      356.00569      0              356.00569      1.4592879      0.022289362    0.03412497     0.03432689     0.032988571    0.03505945     10648        
      9500   2.1932596      407.94629      0.31451216     408.26081      1.6397639      0.050182317    0.06298632     0.045671172    0.049911188    0.093376599    10648        
      9600   2.0981661      390.2589       2.1993858      392.45828      1.5671201      0.088539347    0.100752       0.078710786    0.18228096     0.041264246    10648        
      9700   1.9579         364.1694       2.2094289      366.37883      1.4587541      0.10051025     0.11182225     0.22202824     0.035695734    0.077742771    10648        
      9800   1.9535028      363.35153      3.0414884      366.39301      1.4672383      0.1727205      0.18428211     0.33219307     0.17290851     0.047744744    10648        
      9900   2.0282212      377.24915      0              377.24915      1.5240677      0.023619406    0.035639825    0.035598402    0.031060112    0.04026096     10648        
     10000   2.0740176      385.76728      0              385.76728      1.546391       0.024152722    0.036161848    0.036547712    0.031233975    0.040703856    10648        
     10100   1.9422275      361.25432      0              361.25432      1.4543378      0.022617976    0.034009213    0.033729032    0.029669963    0.038628645    10648        
     10200   1.8484406      343.80995      0.16135857     343.97131      1.384608       0.035788623    0.046641437    0.067850308    0.034181269    0.037892735    10648        
     10300   2.0246538      376.5856       0.28716517     376.87276      1.5165658      0.063603452    0.075489987    0.083820949    0.069966974    0.072682037    10648        
     10400   2.0845643      387.72896      0.052292902    387.78125      1.5992427      0.033840203    0.046962428    0.038448058    0.033973673    0.068465553    10648        
     10500   1.9424356      361.29302      0              361.29302      1.5104099      0.0226204      0.035320441    0.034618337    0.032363516    0.038979471    10648        
     10600   1.8663569      347.14239      0              347.14239      1.4512522      0.021734434    0.033937058    0.033262452    0.03108276     0.03746596     10648        
     10700   1.899056       353.22442      0              353.22442      1.4766785      0.022115228    0.034531645    0.03384522     0.031613796    0.038135919    10648        
     10800   1.9342892      359.77779      0.13468668     359.91248      1.5076207      0.038793017    0.051522702    0.080246093    0.034168138    0.040153875    10648        
     10900   1.9476551      362.26385      0              362.26385      1.5180173      0.022681183    0.035498339    0.034747237    0.03248373     0.039264052    10648        
     11000   1.880233       349.72334      0.57054409     350.29389      1.4740861      0.050070428    0.062645423    0.034495883    0.11869519     0.034745192    10648        
     11100   1.7694391      329.11567      2.0564479      331.17211      1.3752136      0.094339187    0.10589232     0.10447476     0.035833655    0.17736854     10648        
     11200   1.8844312      350.5042       0.22566435     350.72986      1.4612979      0.042433325    0.054660382    0.033327959    0.090084586    0.0405686      10648        
     11300   2.055078       382.2445       0.49711369     382.74161      1.5966375      0.045193166    0.058597849    0.037680073    0.100575       0.037538472    10648        
     11400   1.9707603      366.56142      3.0676049      369.62902      1.5283449      0.096392376    0.10918197     0.038325691    0.20152029     0.08769993     10648        
     11500   1.8555857      345.13895      0.037377441    345.17632      1.4369907      0.029999108    0.041993666    0.034915285    0.032673607    0.058392106    10648        
     11600   1.8812471      349.91196      0              349.91196      1.4567999      0.021907836    0.034066788    0.033066712    0.030789759    0.038343893    10648        
     11700   1.9224264      357.57131      0.37865601     357.94996      1.4996031      0.04818388     0.060864223    0.10190389     0.04035325     0.040335533    10648        
     11800   1.9278687      358.58357      0              358.58357      1.5070504      0.022450762    0.035241881    0.033616285    0.031756669    0.04035269     10648        
     11900   1.9151218      356.21265      1.2767942      357.48944      1.4955678      0.063826781    0.076497826    0.12631657     0.066227686    0.036949222    10648        
     12000   1.870369       347.88863      0              347.88863      1.4856269      0.021781157    0.034740899    0.032697329    0.032298247    0.039227122    10648        
     12100   1.8651287      346.91394      0              346.91394      1.491305       0.021720131    0.034873681    0.032431575    0.032635113    0.039554353    10648        
     12200   1.9206704      357.2447       0              357.2447       1.5347236      0.022366936    0.035889011    0.033465614    0.033593238    0.04060818     10648        
     12300   1.93213        359.37618      0              359.37618      1.5438805      0.022500387    0.03610314     0.033665284    0.033776995    0.040867141    10648        
     12400   1.7537046      326.18905      2.1339418      328.32299      1.4447296      0.16077923     0.1741412      0.22998006     0.24051405     0.05192951     10648        
     12500   1.6942474      315.13001      0.24598811     315.376        1.395813       0.040291933    0.053202409    0.030153556    0.091488431    0.037965241    10648        
     12600   1.8866081      350.9091       0.0070871688   350.91619      1.5539194      0.025684661    0.040052291    0.035412736    0.035961887    0.04878225     10648        
     12700   1.9756166      367.46469      0.0010168553   367.46571      1.6213336      0.024420452    0.039328004    0.034881772    0.038382985    0.044719254    10648        
     12800   1.8335147      341.03374      0.7165911      341.75033      1.5056559      0.049992695    0.063849991    0.036620758    0.069165037    0.085764178    10648        
     12900   1.7694033      329.10902      0              329.10902      1.4680089      0.020605373    0.034328908    0.030310587    0.033287599    0.039388538    10648        
     13000   1.8097413      336.61188      0.021730652    336.63361      1.4948024      0.026495893    0.040376235    0.033908069    0.048248116    0.038972519    10648        
     13100   1.8628426      346.48873      0              346.48873      1.5386912      0.021693509    0.03598179     0.03252083     0.034848384    0.040576155    10648        
     13200   1.9167277      356.51135      0.73914125     357.25049      1.5702915      0.058869491    0.073269225    0.11088018     0.036314663    0.072612836    10648        
     13300   1.8283419      340.07158      0              340.07158      1.4982123      0.021291735    0.035035205    0.032240681    0.033321297    0.039543635    10648        
     13400   1.7190182      319.73738      0              319.73738      1.4086283      0.020018619    0.032940314    0.030312886    0.031324087    0.037183968    10648        
     13500   1.8181221      338.1707       0              338.1707       1.477777       0.021172721    0.034557332    0.031237219    0.033198445    0.039236332    10648        
     13600   1.9695953      366.34472      0              366.34472      1.6119447      0.022936684    0.037694799    0.034510947    0.036017261    0.04255619     10648        
     13700   1.8678425      347.41871      1.9810233      349.39973      1.5336932      0.14752458     0.16163776     0.14312225     0.30126968     0.040521345    10648        
     13800   1.7408524      323.79855      1.3871664      325.18572      1.4285605      0.06653561     0.079669143    0.030078635    0.1716575      0.037271288    10648        
     13900   1.7831717      331.66994      0              331.66994      1.459457       0.020765711    0.034128926    0.031777968    0.03241449     0.038194319    10648        
     14000   1.8547389      344.98143      0.12707007     345.1085       1.5185563      0.037593068    0.051504873    0.071344539    0.043410315    0.039759764    10648        
     14100   1.8860855      350.81191      0              350.81191      1.5504476      0.021964181    0.036256709    0.034436548    0.033909925    0.040423655    10648        
     14200   1.7897695      332.89713      0              332.89713      1.4687546      0.020842545    0.034346347    0.032623564    0.032041752    0.038373725    10648        
     14300   1.659093       308.59129      2.0541387      310.64543      1.347127       0.098379674    0.11056103     0.21632385     0.082449101    0.032910149    10648        
     14400   1.8230971      339.09607      2.0742475      341.17032      1.4782151      0.075502533    0.088839452    0.034156947    0.086437967    0.14592344     10648        
     14500   1.9328867      359.51693      0              359.51693      1.5886334      0.022509199    0.037149674    0.035335884    0.034983401    0.041129736    10648        
     14600   1.8382167      341.90831      0              341.90831      1.5144814      0.021406731    0.035415654    0.033726423    0.033306424    0.039214114    10648        
     14700   1.7500774      325.51439      0              325.51439      1.4418646      0.020380315    0.033717533    0.032109298    0.031697843    0.037345459    10648        
     14800   1.8001536      334.82857      0              334.82857      1.4803049      0.020963472    0.034616447    0.03279458     0.032885091    0.038169672    10648        
     14900   2.0558909      382.3957       0              382.3957       1.6906032      0.023941629    0.039534203    0.037453513    0.037543372    0.043605723    10648        
     15000   1.9399162      360.82442      0              360.82442      1.5952347      0.02259106     0.037304043    0.035340727    0.035412827    0.041158575    10648        
     15100   1.8042042      335.58199      0              335.58199      1.4841678      0.021010643    0.034706779    0.032979443    0.032610659    0.038530235    10648        
     15200   1.8005807      334.90802      0              334.90802      1.4744765      0.020968446    0.034480152    0.032780588    0.032436174    0.038223695    10648        
     15300   1.8656397      347.00899      0.11213761     347.12113      1.5195419      0.048317079    0.062124987    0.081299333    0.062627031    0.042448597    10648        
     15400   1.9499011      362.6816       0              362.6816       1.5888419      0.022707338    0.037154549    0.035509669    0.035002165    0.040951812    10648        
     15500   1.8552025      345.06766      2.2045299      347.27219      1.5276724      0.093297207    0.10741679     0.12221075     0.062947348    0.13709227     10648        
     15600   1.6899817      314.3366       0.32135501     314.65795      1.3908055      0.041330469    0.054173524    0.041758969    0.029959893    0.090801709    10648        
     15700   1.7595392      327.27428      0.0062543858   327.28054      1.4439972      0.026136242    0.039413144    0.03696099     0.03524199     0.046036452    10648        
     15800   1.9177272      356.69727      0              356.69727      1.5862186      0.022332661    0.037093204    0.035410407    0.035715054    0.04015415     10648        
     15900   1.8799474      349.67022      0              349.67022      1.5549696      0.021892701    0.036362456    0.034712811    0.035003135    0.039371423    10648        
     16000   1.7979391      334.41667      0              334.41667      1.4934088      0.020937683    0.034922876    0.033440164    0.033344525    0.037983938    10648        
     16100   1.764698       328.23382      1.4288694      329.66269      1.4696561      0.093326093    0.10714294     0.16335451     0.05659701     0.10147731     10648        
     16200   1.8284172      340.0856       0              340.0856       1.5171814      0.021292612    0.035478791    0.03510354     0.033540205    0.037792629    10648        
     16300   2.0204374      375.80136      0              375.80136      1.6698909      0.023528761    0.039049852    0.038689898    0.037220485    0.041239173    10648        
     16400   1.8793006      349.54991      3.5989636      353.14887      1.575515       0.11312835     0.12808608     0.053135224    0.2825687      0.04855432     10648        
     16500   1.717712       319.49443      0.58191977     320.07635      1.4332156      0.053979286    0.067491156    0.08200821     0.082470788    0.037994471    10648        
     16600   1.7565262      326.71387      0              326.71387      1.464557       0.020455414    0.034248187    0.033089962    0.032734431    0.036920168    10648        
     16700   1.854148       344.87153      0.36478691     345.23632      1.5605061      0.046582059    0.061481727    0.066916391    0.061724366    0.055804425    10648        
     16800   1.8759001      348.91742      0.063903316    348.98132      1.5769332      0.055920205    0.070950703    0.050742099    0.11635193     0.045758085    10648        
     16900   1.6195513      301.23653      1.1747112      302.41124      1.3635354      0.0922074      0.10523294     0.18523895     0.028453129    0.10200674     10648        
     17000   1.655391       307.90273      1.9272769      309.83001      1.3856969      0.077623618    0.09075003     0.034924477    0.15323812     0.084087495    10648        
     17100   1.8344833      341.2139       0.65744848     341.87134      1.5285474      0.049702785    0.064084111    0.083243079    0.051952562    0.057056691    10648        
     17200   1.8522066      344.51042      0              344.51042      1.5486076      0.021569648    0.036213682    0.03356781     0.035922261    0.039150976    10648        
     17300   1.7624911      327.82334      1.2535878      329.07692      1.477162       0.12571744     0.13973551     0.12660937     0.20779385     0.084803318    10648        
     17400   1.6744519      311.44805      0              311.44805      1.3996549      0.019499627    0.032730473    0.030751774    0.03242288     0.035016766    10648        
     17500   1.6429457      305.58789      0.19170721     305.7796       1.3987833      0.037824357    0.051401721    0.026544385    0.078699847    0.048960933    10648        
     17600   1.8551878      345.06493      0              345.06493      1.5774035      0.021604366    0.036887065    0.034759859    0.03738389     0.038517446    10648        
     17700   1.8672567      347.30975      0.82226071     348.13201      1.5817428      0.060745315    0.07598894     0.038442688    0.052578875    0.13694526     10648        
     17800   1.7034479      316.8413       0              316.8413       1.4501571      0.019837297    0.03391145     0.032201748    0.034599638    0.034932965    10648        
     17900   1.6908021      314.48918      0              314.48918      1.4263355      0.019690031    0.03335439     0.031761697    0.034266524    0.034034948    10648        
     18000   1.850642       344.21942      0              344.21942      1.5717035      0.021551429    0.036753773    0.034731809    0.038173855    0.037355656    10648        
     18100   1.9856855      369.33751      0.4628894      369.80039      1.6865435      0.0474519      0.063767107    0.035981783    0.051960028    0.10335951     10648        
     18200   1.6608242      308.9133       0              308.9133       1.4092202      0.019340928    0.032954154    0.031171857    0.034061257    0.033629349    10648        
     18300   1.67421        311.40305      0.25100563     311.65406      1.4281989      0.041731627    0.055632782    0.03059004     0.094999305    0.041309002    10648        
     18400   1.8077168      336.23533      0              336.23533      1.5635095      0.021051548    0.036562159    0.034108131    0.038130857    0.037447488    10648        
     18500   1.8285062      340.10215      4.1073136      344.20947      1.5710132      0.10588343     0.12132741     0.07923062     0.22459589     0.06015572     10648        
     18600   1.6865355      313.69561      0.33507157     314.03068      1.4479943      0.045113735    0.059334263    0.053478851    0.088133663    0.036390276    10648        
     18700   1.62728        302.67407      2.2395924      304.91366      1.4027852      0.082897234    0.096750614    0.19918426     0.032737358    0.05833022     10648        
     18800   1.808063       336.29971      0.50939078     336.8091       1.5594393      0.051120265    0.066531665    0.057402279    0.035244406    0.10694831     10648        
     18900   1.8727367      348.32903      1.2153459      349.54437      1.6247987      0.10035632     0.11654298     0.16002532     0.14569659     0.04390703     10648        
     19000   1.7202461      319.96578      2.5834428      322.54922      1.5383726      0.088170243    0.10411167     0.13717241     0.035546126    0.13961646     10648        
     19100   1.6588908      308.55368      0              308.55368      1.4787885      0.019318412    0.034580986    0.033486593    0.036158167    0.034098198    10648        
     19200   1.6326515      303.67319      0              303.67319      1.455398       0.019012847    0.034034007    0.032956924    0.035606543    0.033538554    10648        
     19300   1.7235842      320.58666      0              320.58666      1.5364583      0.020071792    0.035929575    0.034792502    0.037611171    0.035385051    10648        
     19400   1.8560968      345.23401      0              345.23401      1.6545843      0.021614952    0.038691913    0.03746742     0.040526704    0.038081615    10648        
     19500   1.6965693      315.56189      0              315.56189      1.4904475      0.019757193    0.034853627    0.033722029    0.035575444    0.035263408    10648        
     19600   1.6006         297.71161      0              297.71161      1.4061739      0.018639595    0.032882917    0.032292477    0.033584887    0.032771388    10648        
     19700   1.7030345      316.76442      0              316.76442      1.4900134      0.019832483    0.034843477    0.034053623    0.035660463    0.034816344    10648        
     19800   1.7853755      332.07984      0              332.07984      1.5620549      0.020791375    0.036528144    0.035700101    0.037404699    0.036479632    10648        
     19900   1.7266752      321.16158      0              321.16158      1.5091666      0.020107787    0.035291368    0.034529007    0.036173266    0.035171831    10648        
     20000   1.4949662      278.06371      0.8789442      278.94266      1.312213       0.070747927    0.084024151    0.077395922    0.058633873    0.11604266     10648        
     20100   1.5422373      286.85614      0              286.85614      1.3695353      0.017959939    0.032026136    0.031008072    0.033580972    0.031489365    10648        
     20200   1.6760635      311.74781      0              311.74781      1.4842848      0.019518395    0.034709516    0.033280926    0.036079879    0.034767741    10648        
     20300   1.7289827      321.59078      0              321.59078      1.5313803      0.020134659    0.035810827    0.034268678    0.037225926    0.035937876    10648        
     20400   1.7313062      322.02296      0              322.02296      1.5242063      0.020161718    0.035643067    0.033478958    0.036735543    0.036714701    10648        
     20500   1.6435022      305.69142      0.005538832    305.69696      1.4469028      0.025522509    0.04021865     0.032999477    0.050954022    0.036702452    10648        
     20600   1.6086316      299.20547      0.14628228     299.35175      1.4013711      0.042263256    0.056300736    0.062408232    0.046180938    0.060313038    10648        
     20700   1.7864749      332.28434      0              332.28434      1.5546029      0.020804179    0.03635388     0.036002298    0.036829148    0.036230195    10648        
     20800   1.8609038      346.12811      0              346.12811      1.6193714      0.021670931    0.037868471    0.03750224     0.038389738    0.037713434    10648        
     20900   1.7286625      321.53123      0              321.53123      1.4891675      0.020130931    0.034823696    0.034056188    0.035435137    0.034979762    10648        
     21000   1.6838196      313.19044      0              313.19044      1.4505373      0.019608718    0.03392034     0.033172742    0.034540865    0.034047413    10648        
     21100   1.7299812      321.7765       0              321.7765       1.4903035      0.020146287    0.03485026     0.034082167    0.035513408    0.034955205    10648        
     21200   1.7605432      327.46104      0.57583832     328.03688      1.5237229      0.048135179    0.063264748    0.070090182    0.036132867    0.083571196    10648        
     21300   1.7433617      324.26528      0              324.26528      1.5123208      0.020302109    0.035365128    0.034788498    0.035834609    0.035472275    10648        
     21400   1.5786323      293.62561      0              293.62561      1.3686597      0.018383772    0.03200566     0.030974087    0.033079711    0.031963183    10648        
     21500   1.5746987      292.89395      0.051247985    292.9452       1.3723408      0.030181475    0.043935252    0.036421246    0.06329622     0.032088291    10648        
     21600   1.7810169      331.26914      0.10366923     331.37281      1.5477597      0.033567467    0.049020705    0.045615136    0.065559594    0.035887386    10648        
     21700   1.7708122      329.37107      0              329.37107      1.5593184      0.02062178     0.036464152    0.035333299    0.038213644    0.035845513    10648        
     21800   1.6629877      309.31572      0              309.31572      1.4643718      0.019366123    0.034243855    0.03318186     0.035927226    0.03362248     10648        
     21900   1.5945335      296.58324      0              296.58324      1.4119984      0.018568948    0.03301912     0.032168964    0.034532239    0.032356158    10648        
     22000   1.7859989      332.1958       0.26950028     332.4653       1.5805689      0.047417239    0.063579691    0.047124633    0.10508886     0.038525578    10648        
     22100   1.8602758      346.0113       0.46598201     346.47728      1.644899       0.050703539    0.067505346    0.036297401    0.060200745    0.10601789     10648        
     22200   1.6760734      311.74966      0              311.74966      1.4839829      0.019518511    0.034702454    0.03429871     0.035972009    0.033836644    10648        
     22300   1.6310055      303.36702      0              303.36702      1.44408        0.018993678    0.033769339    0.033376452    0.035041627    0.03288994     10648        
     22400   1.7359428      322.88535      0.43970348     323.32506      1.5067097      0.056851771    0.071869973    0.055985195    0.12555476     0.034069962    10648        
     22500   1.837245       341.72758      0              341.72758      1.5935505      0.021395415    0.037264658    0.036393735    0.038573998    0.036826241    10648        
     22600   1.8175155      338.05788      0.0067558068   338.06463      1.5499507      0.024140702    0.039220136    0.036724585    0.043410962    0.037524862    10648        
     22700   1.6281057      302.82765      0.021597653    302.84925      1.3862661      0.025186098    0.038643569    0.034892045    0.049021651    0.032017011    10648        
     22800   1.6914658      314.61264      0              314.61264      1.4378316      0.019697761    0.033623223    0.033002128    0.034926092    0.03294145     10648        
     22900   1.8557136      345.16273      0              345.16273      1.5774506      0.021610489    0.036888167    0.036206761    0.038348426    0.036109314    10648        
     23000   1.8244481      339.34734      0              339.34734      1.5510846      0.02124639     0.036271606    0.035696797    0.037804896    0.035313126    10648        
     23100   1.7115872      318.35523      0              318.35523      1.4549375      0.019932083    0.034023238    0.033251305    0.035615277    0.033203132    10648        
     23200   1.7020078      316.57346      0              316.57346      1.4528556      0.019820527    0.033974553    0.033338986    0.035814301    0.032770373    10648        
     23300   1.7330391      322.34528      0.0034556742   322.34873      1.4939942      0.022754151    0.037508818    0.034279075    0.038358945    0.039888434    10648        
     23400   1.7460145      324.7587       0.078731664    324.83743      1.5049854      0.044366925    0.059227516    0.055831995    0.056504431    0.065346122    10648        
     23500   1.7357654      322.85236      0              322.85236      1.5066508      0.020213646    0.035232537    0.034637938    0.037843376    0.033216298    10648        
     23600   1.7233154      320.53667      2.0233563      322.56002      1.4886587      0.14995387     0.16469701     0.096576023    0.13190226     0.26561275     10648        
     23700   1.7185059      319.64211      0              319.64211      1.4771006      0.020012654    0.034541515    0.032539717    0.038568448    0.032516379    10648        
     23800   1.7331297      322.36213      0.31038357     322.67252      1.497314       0.049128675    0.063959919    0.033973725    0.055597766    0.10230827     10648        
     23900   1.8064152      335.99322      0              335.99322      1.5642573      0.02103639     0.036579645    0.034660748    0.038500443    0.036577744    10648        
     24000   1.7816438      331.38575      2.2332524      333.619        1.5382893      0.074873119    0.090097593    0.12707196     0.10244296     0.040777862    10648        
     24100   1.6346077      304.03703      0.023039039    304.06007      1.4052029      0.02433318     0.038157765    0.037379334    0.037887482    0.03920648     10648        
     24200   1.6149912      300.38836      0.026059059    300.41442      1.408328       0.024557828    0.038683932    0.033929044    0.041683194    0.040439559    10648        
     24300   1.8212146      338.74592      0.42205863     339.16798      1.5982391      0.049363278    0.065528841    0.049249297    0.057795076    0.08954215     10648        
     24400   1.7953481      333.93475      0              333.93475      1.5765688      0.02090751     0.036867546    0.035371071    0.038777754    0.036453812    10648        
     24500   1.6906974      314.46972      0.06946071     314.53918      1.4833811      0.027894504    0.042894074    0.03395639     0.040815993    0.053909838    10648        
     24600   1.6290155      302.99687      1.4317048      304.42858      1.4481337      0.060502154    0.075395784    0.040488464    0.051983023    0.13371587     10648        
     24700   1.7400693      323.65288      0              323.65288      1.5360097      0.020263767    0.035919086    0.035405152    0.038225528    0.034126576    10648        
     24800   1.927439       358.50366      0              358.50366      1.7068512      0.022445759    0.039914158    0.039635212    0.042574307    0.037532956    10648        
     24900   1.7209723      320.10084      0              320.10084      1.5240138      0.020041375    0.035638564    0.035389499    0.038027647    0.033498546    10648        
     25000   1.6263534      302.50174      0.29660315     302.79834      1.4442447      0.056034894    0.070868581    0.087429744    0.095679215    0.029496784    10648        
     25100   1.6762355      311.77981      0              311.77981      1.4996653      0.019520399    0.035069184    0.034738377    0.037240862    0.033228312    10648        
     25200   1.7601651      327.39071      1.1354787      328.52619      1.5683081      0.068861298    0.08503788     0.083018045    0.097925785    0.07416981     10648        
     25300   1.7124985      318.52471      0.02115861     318.54587      1.5211547      0.025269153    0.040898165    0.039737556    0.039134148    0.043822792    10648        
     25400   1.5019597      279.36451      1.0083983      280.37291      1.360983       0.060230519    0.074565772    0.12455061     0.052863733    0.046282972    10648        
     25500   1.58205        294.2613       0.10045106     294.36175      1.4303424      0.032683854    0.047708372    0.043893079    0.066401265    0.032830772    10648        
     25600   1.6925798      314.81984      0.18270119     315.00254      1.5566066      0.059128737    0.07581874     0.13641845     0.054544758    0.036493009    10648        
     25700   1.670983       310.80284      2.705518       313.50836      1.522481       0.077698733    0.093842222    0.034646818    0.072410211    0.17446964     10648        
     25800   1.6177123      300.89449      0              300.89449      1.4668546      0.018838874    0.034301915    0.032464401    0.036986011    0.033455332    10648        
     25900   1.5903384      295.80295      0.21142002     296.01437      1.4483511      0.038140422    0.053489545    0.072728293    0.040296002    0.04744434     10648        
     26000   1.7072404      317.54671      0              317.54671      1.5885528      0.019881462    0.037147789    0.03399924     0.041136918    0.036307208    10648        
     26100   1.7784774      330.79681      0              330.79681      1.6418699      0.020711045    0.038394591    0.035205762    0.042459603    0.037518409    10648        
     26200   1.5849576      294.80212      0              294.80212      1.4655402      0.018457433    0.034271179    0.032745933    0.037081359    0.032986244    10648        
     26300   1.5548297      289.19832      1.1688761      290.36719      1.441015       0.065975193    0.081566276    0.051681873    0.070572599    0.12244436     10648        
     26400   1.6227912      301.83917      0              301.83917      1.5106319      0.01889802     0.035325632    0.033488396    0.03825249     0.034236011    10648        
     26500   1.6685409      310.34861      1.6205202      311.96913      1.5529696      0.076002709    0.092887605    0.1470419      0.077798999    0.053821918    10648        
     26600   1.5704967      292.11239      2.2917247      294.40412      1.4583382      0.13877471     0.15458844     0.13622633     0.14877226     0.17876674     10648        
     26700   1.4292163      265.83423      1.821529       267.65576      1.330591       0.075790676    0.090262347    0.044932902    0.16722459     0.058629544    10648        
     26800   1.6052548      298.5774       0.7702032      299.3476       1.4745913      0.066939022    0.082728056    0.10636248     0.038860166    0.10296153     10648        
     26900   1.7013541      316.45187      1.1901671      317.64204      1.5545792      0.087394199    0.10393461     0.054365138    0.086730735    0.17070796     10648        
     27000   1.6401513      305.06815      0.6007921      305.66894      1.5104959      0.05270674     0.068929009    0.037477952    0.13358062     0.035728452    10648        
     27100   1.537988       286.06577      0              286.06577      1.4382225      0.017910454    0.033632363    0.032189898    0.03779877     0.030908421    10648        
     27200   1.5347899      285.47091      0              285.47091      1.4323055      0.01787321     0.033493997    0.032390929    0.037347257    0.030743803    10648        
     27300   1.7119505      318.4228       0              318.4228       1.5975027      0.019936314    0.037357078    0.036303061    0.04151339     0.034254782    10648        
     27400   1.7108857      318.22474      0              318.22474      1.596509       0.019923913    0.037333842    0.036280481    0.04149969     0.034221355    10648        
     27500   1.5431334      287.02281      0              287.02281      1.4399713      0.017970374    0.033673259    0.03272318     0.037441046    0.030855551    10648        
     27600   1.5379159      286.05235      0              286.05235      1.4351026      0.017909614    0.033559405    0.032612539    0.037324352    0.030741326    10648        
     27700   1.6220806      301.70698      0.027927806    301.73491      1.5131721      0.031580298    0.04807559     0.069521501    0.037848905    0.036856364    10648        
     27800   1.6128025      299.98126      3.2981055      303.27936      1.5263841      0.09524227     0.11215457     0.045531832    0.075231211    0.21570066     10648        
     27900   1.6060829      298.73141      0              298.73141      1.5120944      0.018703444    0.035359833    0.033492147    0.039254923    0.033332428    10648        
     28000   1.5853847      294.88156      0              294.88156      1.4926075      0.018462407    0.034904139    0.033060523    0.038756862    0.032895031    10648        
     28100   1.5860099      294.99784      0              294.99784      1.4936919      0.018469687    0.034929496    0.033103319    0.038337186    0.033347982    10648        
     28200   1.6285787      302.91564      0              302.91564      1.5337828      0.018965417    0.035867009    0.033991818    0.039372354    0.034236856    10648        
     28300   1.7049746      317.12527      0.0039964478   317.12927      1.606404       0.022636089    0.040346247    0.041746604    0.042946301    0.036345836    10648        
     28400   1.5953064      296.72699      0              296.72699      1.5046281      0.018577948    0.035185237    0.032856742    0.03851329     0.034185679    10648        
     28500   1.4854814      276.29954      0              276.29954      1.4027849      0.017298994    0.032803666    0.03094494     0.035660153    0.031805905    10648        
     28600   1.5756507      293.07102      2.1619523      295.23297      1.4750349      0.07493741     0.091081569    0.11758282     0.036681113    0.11898077     10648        
     28700   1.7342695      322.57413      0              322.57413      1.6143053      0.020196227    0.037750002    0.035252185    0.040966441    0.037031379    10648        
     28800   1.6591419      308.6004       0.23148214     308.83188      1.5533674      0.040377947    0.0573816      0.094444361    0.041228975    0.036471462    10648        
     28900   1.6029509      298.14887      1.5303953      299.67926      1.4969247      0.055926029    0.072264151    0.032333748    0.04042668     0.14403203     10648        
     29000   1.5915255      296.02374      0              296.02374      1.4842405      0.018533918    0.034708479    0.032006903    0.037856495    0.034262041    10648        
     29100   1.6117382      299.7833       0              299.7833       1.4994745      0.018769303    0.035064722    0.032310379    0.038097815    0.034785971    10648        
     29200   1.6685623      310.35259      0.4751212      310.82771      1.5619306      0.055714608    0.072808802    0.090962348    0.07634056     0.051123498    10648        
     29300   1.6808268      312.63378      1.2633492      313.89713      1.5788116      0.11414915     0.13149528     0.034195888    0.024677329    0.33561263     10648        
     29400   1.5504221      288.37852      0              288.37852      1.4408545      0.018055254    0.033693911    0.032461707    0.034805138    0.033814889    10648        
     29500   1.4991171      278.83579      0.42505049     279.26084      1.400143       0.077468972    0.09275307     0.056256133    0.19075305     0.031250031    10648        
     29600   1.6704279      310.6996       0.59618725     311.29578      1.5525287      0.14240064     0.15925325     0.035180389    0.043567343    0.39901202     10648        
     29700   1.7068025      317.46526      1.0640155      318.52927      1.5981481      0.074843024    0.092338833    0.035753248    0.11871481     0.12254845     10648        
     29800   1.6323667      303.6202       0              303.6202       1.5264391      0.019009529    0.03569528     0.034634977    0.035118625    0.037332237    10648        
     29900   1.5742258      292.806        0              292.806        1.4735915      0.018332457    0.034459455    0.033431029    0.033944684    0.036002651    10648        
     30000   1.5754983      293.04269      0              293.04269      1.4742823      0.018347276    0.034475609    0.033457743    0.03392194     0.036047144    10648        
     30100   1.6848449      313.38115      0.73330516     314.11446      1.5793565      0.05632934     0.073641417    0.12598316     0.040636038    0.054305052    10648        
     30200   1.7788799      330.87167      0              330.87167      1.6653799      0.020715732    0.038944364    0.038517051    0.038419028    0.039897013    10648        
     30300   1.5611829      290.38001      0              290.38001      1.4615728      0.018180567    0.034178402    0.033803383    0.033730316    0.035001507    10648        
     30400   1.5219972      283.09148      3.7020035      286.79348      1.418449       0.20767102     0.22311676     0.19874073     0.068834148    0.4017754      10648        
     30500   1.6288834      302.97232      0              302.97232      1.5169343      0.018968966    0.035473012    0.034109714    0.034807881    0.037501443    10648        
     30600   1.6892531      314.20107      0              314.20107      1.5731549      0.019671993    0.036787712    0.035373887    0.0361109      0.03887835     10648        
     30700   1.5431897      287.03328      0              287.03328      1.4480457      0.017971029    0.033862076    0.032322458    0.03330989     0.03595388     10648        
     30800   1.410839       262.41606      0.10776631     262.52383      1.3237477      0.030191372    0.044717023    0.028970524    0.068651169    0.036529377    10648        
     30900   1.5642054      290.94221      3.1945113      294.13672      1.4442642      0.16356326     0.17912114     0.2314866      0.10694229     0.19893455     10648        
     31000   1.6436986      305.72793      1.8025787      307.53051      1.5255471      0.12210841     0.13864133     0.25997384     0.090889718    0.065060433    10648        
     31100   1.6332428      303.78316      0.14457588     303.92774      1.5259667      0.051120592    0.067785093    0.057060549    0.052313197    0.093981532    10648        
     31200   1.5549125      289.21372      0              289.21372      1.4529041      0.018107546    0.033975687    0.033309696    0.033466946    0.035150419    10648        
     31300   1.4680133      273.05048      0              273.05048      1.3717058      0.017095572    0.032076893    0.031448122    0.031605472    0.033177085    10648        
     31400   1.6007259      297.73502      0              297.73502      1.4854041      0.018641061    0.034735689    0.033567946    0.034511667    0.036127455    10648        
     31500   1.7356769      322.8359       0              322.8359       1.6120858      0.020212616    0.037698099    0.03647046     0.037604327    0.039019511    10648        
     31600   1.6236426      301.99753      1.3797958      303.37732      1.5129509      0.065262356    0.081734284    0.049561345    0.082192821    0.11344869     10648        
     31700   1.522861       283.25215      0.43351771     283.68567      1.4299363      0.046755236    0.062459534    0.04605089     0.043946709    0.097381003    10648        
     31800   1.5654869      291.18056      0              291.18056      1.4734187      0.018230689    0.034455415    0.033306462    0.035264772    0.034795011    10648        
     31900   1.6292495      303.04041      0              303.04041      1.5334314      0.018973229    0.035858791    0.034663041    0.036714887    0.036198446    10648        
     32000   1.6324678      303.63901      0.73408605     304.37309      1.5217579      0.049709707    0.066284812    0.03208962     0.12869348     0.03807134     10648        
     32100   1.5868391      295.15208      0.10776326     295.25984      1.494273       0.032944815    0.049408556    0.059443526    0.047963853    0.04081829     10648        
     32200   1.5572189      289.64272      0              289.64272      1.476292       0.018134405    0.034522607    0.03233877     0.036464829    0.034764221    10648        
     32300   1.5928469      296.26953      0              296.26953      1.5070541      0.018549307    0.035241967    0.033065088    0.03727193     0.035388884    10648        
     32400   1.6829831      313.03485      0              313.03485      1.5923354      0.019598976    0.037236242    0.034936178    0.039389614    0.037382934    10648        
     32500   1.6573602      308.26899      0              308.26899      1.5448897      0.019300588    0.036126742    0.033275017    0.038434155    0.036671053    10648        
     32600   1.4985487      278.73006      0              278.73006      1.3968554      0.017451168    0.032665007    0.03008654     0.034760659    0.033147821    10648        
     32700   1.5228036      283.24147      0.96255003     284.20402      1.433388       0.051390326    0.067176011    0.097800994    0.057595118    0.046131921    10648        
     32800   1.6474628      306.42808      0              306.42808      1.5710498      0.019185329    0.036738487    0.03304778     0.040261544    0.036906136    10648        
     32900   1.6268212      302.58875      2.5183261e-05  302.58877      1.5519027      0.019363429    0.036709217    0.032606856    0.040559832    0.036960963    10648        
     33000   1.5447705      287.32732      0.64783692     287.97516      1.490672       0.051751339    0.068620777    0.039626182    0.11387991     0.052356236    10648        
     33100   1.5130322      281.424        0.042490548    281.46649      1.4609176      0.025596988    0.042140233    0.048523795    0.042770711    0.035126193    10648        
     33200   1.5748201      292.91654      0              292.91654      1.5174692      0.018339378    0.035485521    0.032698373    0.037752354    0.036005838    10648        
     33300   1.7267546      321.17635      0.0023693474   321.17872      1.6638069      0.022195499    0.040994367    0.036746438    0.046618352    0.039618311    10648        
     33400   1.5832547      294.48538      0              294.48538      1.5352683      0.018437602    0.035901749    0.032814618    0.03836695     0.036523678    10648        
     33500   1.4674887      272.95289      0              272.95289      1.423011       0.017089462    0.033276647    0.030415244    0.03556669     0.033848007    10648        
     33600   1.5349576      285.50212      0.41835413     285.92047      1.4764298      0.056627781    0.073278444    0.084787501    0.065820047    0.069227784    10648        
     33700   1.6208674      301.48133      0              301.48133      1.5585215      0.018875616    0.036445517    0.033773069    0.038914599    0.036648883    10648        
     33800   1.5707364      292.15698      0.44022071     292.5972       1.5290198      0.07384122     0.091305027    0.032903342    0.18950702     0.051504722    10648        
     33900   1.3616041      253.25836      0              253.25836      1.3294285      0.015856396    0.03108825     0.028546222    0.033732392    0.030986136    10648        
     34000   1.4241894      264.89923      0              264.89923      1.3952113      0.016585226    0.032626561    0.029742794    0.035510896    0.032625992    10648        
     34100   1.553564       288.9629       0              288.9629       1.520924       0.018091842    0.03556631     0.03245308     0.038688108    0.035557741    10648        
     34200   1.5672817      291.5144       0.003305572    291.51771      1.5345917      0.020143998    0.037778332    0.036835546    0.039196072    0.037303379    10648        
     34300   1.4912192      277.36677      0.98448599     278.35125      1.4768673      0.058420373    0.075590619    0.11899007     0.072583462    0.035198323    10648        
     34400   1.4230411      264.68565      0              264.68565      1.3991692      0.016571854    0.032719114    0.028711157    0.036174273    0.033271914    10648        
     34500   1.4632023      272.15563      0              272.15563      1.4302483      0.017039546    0.033445889    0.02974378     0.036812667    0.03378122     10648        
     34600   1.6387223      304.80235      0              304.80235      1.6042174      0.019083543    0.037514099    0.033214145    0.041535933    0.037792219    10648        
     34700   1.5959176      296.84068      0.19766133     297.03834      1.5616482      0.042910452    0.060844018    0.043674547    0.043937923    0.094919583    10648        
     34800   1.4591016      271.3929       1.9439931      273.3369       1.4306324      0.11881605     0.13527913     0.26187353     0.038946541    0.10501733     10648        
     34900   1.436841       267.25243      0.77311078     268.02554      1.4463028      0.050497074    0.067585834    0.043594645    0.037589061    0.1215738      10648        
     35000   1.4918567      277.48534      1.7485625      279.2339       1.5007145      0.062942951    0.080663432    0.15022652     0.057649377    0.034114398    10648        
     35100   1.5044249      279.82304      0              279.82304      1.5145441      0.017519599    0.035417119    0.03270847     0.039089413    0.034453473    10648        
     35200   1.4873978      276.656        0.20539527     276.86139      1.4977441      0.036386612    0.054089556    0.030372606    0.079008334    0.052887727    10648        
     35300   1.4652352      272.53374      0              272.53374      1.4788689      0.017063219    0.034582867    0.031892823    0.037869558    0.033986218    10648        
     35400   1.4591724      271.40607      1.750688       273.15676      1.4693711      0.076335408    0.093703553    0.032651522    0.2104306      0.038028542    10648        
     35500   1.5216191      283.02116      0              283.02116      1.5311128      0.017719832    0.035804573    0.032977678    0.0385157      0.035920341    10648        
     35600   1.5522864      288.72527      5.2788873      294.00415      1.5477878      0.13772019     0.15583773     0.28348886     0.024445922    0.15957842     10648        
     35700   1.4826646      275.77562      0              275.77562      1.4733208      0.017266192    0.034453124    0.032625371    0.035519891    0.035214111    10648        
     35800   1.4097968      262.22221      0              262.22221      1.3873635      0.016417619    0.032443041    0.029684747    0.033741117    0.03390326     10648        
     35900   1.5371244      285.90513      1.3029916      287.20813      1.5143359      0.058508995    0.076020847    0.05113244     0.13781434     0.039115767    10648        
     36000   1.6448669      305.94524      0              305.94524      1.6337361      0.019155099    0.038204385    0.035310498    0.039259312    0.040043344    10648        
     36100   1.5377909      286.02911      0              286.02911      1.5273847      0.017908158    0.035717393    0.033011889    0.036705069    0.037435219    10648        
     36200   1.4697856      273.38012      0              273.38012      1.4598396      0.017116211    0.034137872    0.031552014    0.035082828    0.035778775    10648        
     36300   1.4898893      277.11942      0              277.11942      1.4798073      0.017350327    0.034604811    0.031983583    0.0355633      0.036267549    10648        
     36400   1.5897945      295.70177      0              295.70177      1.5790364      0.01851376     0.03692525     0.034128254    0.037948281    0.038699213    10648        
     36500   1.7348393      322.68011      0.011865294    322.69198      1.7213591      0.02386804     0.043918599    0.038416392    0.050923003    0.0424164      10648        
     36600   1.521534       283.00532      0              283.00532      1.5106347      0.01771884     0.035325698    0.032447237    0.036308901    0.037220956    10648        
     36700   1.4478301      269.29639      1.806323       271.10271      1.4312773      0.075623856    0.092233277    0.11952357     0.041074631    0.11610163     10648        
     36800   1.52473        283.59977      0              283.59977      1.5041377      0.017756059    0.035173769    0.031095768    0.036975169    0.037450371    10648        
     36900   1.6146326      300.32166      0              300.32166      1.5866982      0.018803009    0.037104418    0.03307036     0.038255821    0.039987072    10648        
     37000   1.5309385      284.75456      2.0089658      286.76352      1.5004032      0.092106202    0.10936428     0.041233957    0.13868465     0.14817423     10648        
     37100   1.3856155      257.72448      0.70900624     258.43349      1.3498181      0.053543824    0.068972861    0.02769107     0.097981405    0.081246108    10648        
     37200   1.4648677      272.46539      0.012980058    272.47837      1.4437343      0.022029791    0.038732105    0.038042808    0.040383558    0.037769948    10648        
     37300   1.5466522      287.67731      0              287.67731      1.526241       0.018011352    0.035690647    0.030802318    0.038040994    0.038228629    10648        
     37400   1.5353038      285.5665       0.36583665     285.93234      1.5200306      0.037140962    0.054807186    0.060889052    0.059782875    0.04374963     10648        
     37500   1.4783215      274.96779      0              274.96779      1.4738251      0.017215614    0.034464918    0.029707322    0.036894603    0.03679283     10648        
     37600   1.4149644      263.18338      0              263.18338      1.4106607      0.016477797    0.03298784     0.028434143    0.035312866    0.035216513    10648        
     37700   1.4524115      270.14854      0              270.14854      1.4479906      0.016913883    0.033860786    0.029166663    0.036244975    0.036170721    10648        
     37800   1.6023451      298.03619      0              298.03619      1.6006619      0.018659917    0.037430956    0.032324585    0.040059582    0.039908701    10648        
     37900   1.5682547      291.69538      0.005211293    291.70059      1.5611827      0.02080638     0.039051206    0.034484756    0.043396567    0.039272296    10648        
     38000   1.4469418      269.13117      0              269.13117      1.4219519      0.016850186    0.033251881    0.028334902    0.035473805    0.035946937    10648        
     38100   1.4683148      273.10655      0.30756833     273.41411      1.436717       0.040287893    0.056785967    0.029836569    0.063040294    0.077481039    10648        
     38200   1.5089766      280.66964      0              280.66964      1.4987797      0.017572605    0.035048474    0.030338455    0.038640875    0.036166091    10648        
     38300   1.5248608      283.6241       0              283.6241       1.5146273      0.017757582    0.035419064    0.030634891    0.039100608    0.036521692    10648        
     38400   1.505172       279.962        1.3828162      281.34481      1.4967445      0.17488446     0.19235705     0.043737876    0.47502994     0.058303325    10648        
     38500   1.4736883      274.10602      0              274.10602      1.4588463      0.017161659    0.034114643    0.030208055    0.037455818    0.034680055    10648        
     38600   1.440851       267.99829      0              267.99829      1.4263397      0.016779257    0.033354488    0.029534948    0.036616591    0.033911924    10648        
     38700   1.507207       280.34049      2.2050495      282.54554      1.5225694      0.081171523    0.099224315    0.057976172    0.18057486     0.059121917    10648        
     38800   1.6125629      299.93669      0.15962013     300.09631      1.613834       0.035598045    0.05455812     0.033115165    0.07100614     0.059553054    10648        
     38900   1.4879111      276.75147      0              276.75147      1.4877722      0.017327289    0.034791067    0.030362998    0.038449943    0.035560259    10648        
     39000   1.3921754      258.94462      0              258.94462      1.3920454      0.01621241     0.032552527    0.028409371    0.035984265    0.033263944    10648        
     39100   1.470619       273.53513      0              273.53513      1.4585165      0.017125916    0.034106932    0.029918259    0.037342323    0.035060214    10648        
     39200   1.524586       283.57299      0              283.57299      1.5120394      0.017754382    0.035358547    0.031016163    0.038723334    0.036336144    10648        
     39300   1.5445141      287.27962      0.33703331     287.61665      1.5213133      0.04254831     0.060137273    0.059978644    0.039078797    0.081354378    10648        
     39400   1.5122845      281.28492      0.26470831     281.54963      1.4800776      0.040139715    0.057139718    0.034269808    0.065891296    0.071258052    10648        
     39500   1.398684       260.15522      0.61046247     260.76568      1.3696491      0.044649306    0.060389897    0.029347939    0.095092311    0.056729439    10648        
     39600   1.4346298      266.84114      0              266.84114      1.4190494      0.016706808    0.033184005    0.029830915    0.03639473     0.033326371    10648        
     39700   1.6048957      298.51061      0              298.51061      1.5863182      0.01868962     0.037095532    0.033201228    0.041071793    0.037013576    10648        
     39800   1.5670052      291.46297      0              291.46297      1.5488663      0.01824837     0.036219732    0.032417369    0.040110899    0.036130927    10648        
     39900   1.4645594      272.40805      0              272.40805      1.4476063      0.01705535     0.0338518      0.030298024    0.037495979    0.033761397    10648        
     40000   1.4708786      273.58343      0              273.58343      1.4513521      0.01712894     0.033939394    0.030414523    0.03772975     0.033673909    10648        
     40100   1.6920719      314.72537      0              314.72537      1.6696089      0.019704819    0.039043258    0.034988311    0.043411587    0.038729878    10648        
     40200   1.7034313      316.83822      0              316.83822      1.6851673      0.019837104    0.039407087    0.035262395    0.043753634    0.039205232    10648        
     40300   1.5483785      287.9984       0.38462282     288.38303      1.5298605      0.048714456    0.066458288    0.04757359     0.08400763     0.067793644    10648        
     40400   1.5022874      279.42546      0              279.42546      1.4530561      0.017494707    0.033979242    0.030433662    0.036440568    0.035063496    10648        
     40500   1.5156865      281.91769      0              281.91769      1.4660161      0.017650744    0.034282307    0.030705103    0.036770196    0.035371621    10648        
     40600   1.6375542      304.58508      0              304.58508      1.58389        0.01906994     0.037038751    0.033173925    0.039731322    0.038211006    10648        
     40700   1.6708904      310.78562      0              310.78562      1.6172605      0.019458153    0.037819108    0.033953961    0.04026214     0.039241222    10648        
     40800   1.4471255      269.16535      0              269.16535      1.4006777      0.016852326    0.03275439     0.029406862    0.034874975    0.033981333    10648        
     40900   1.4566799      270.94246      0.072191121    271.01465      1.4112577      0.027427185    0.043465396    0.04619842     0.050201794    0.033995972    10648        
     41000   1.5707321      292.15617      0.081377901    292.23755      1.5315977      0.028226826    0.045750966    0.050041851    0.045806752    0.041404295    10648        
     41100   1.5797953      293.84192      3.7192474      297.56117      1.54618        0.099421513    0.11718111     0.05861773     0.21214267     0.080782934    10648        
     41200   1.5203016      282.7761       0.085596113    282.8617       1.4836049      0.030699252    0.047688378    0.046259813    0.036637655    0.060167666    10648        
     41300   1.4021898      260.8073       0.076843671    260.88415      1.3756521      0.03231773     0.048157874    0.044348888    0.038798842    0.061325891    10648        
     41400   1.3078148      243.25355      0              243.25355      1.2833522      0.015229999    0.030010773    0.027767313    0.032007852    0.030257154    10648        
     41500   1.5194497      282.61765      0.0061682862   282.62382      1.4780566      0.020864851    0.037734153    0.033273016    0.04178805     0.038141394    10648        
     41600   1.6041251      298.36726      0.95430469     299.32156      1.5635344      0.076375054    0.09425715     0.037250477    0.090447064    0.15507391     10648        
     41700   1.5554351      289.31092      0              289.31092      1.5145264      0.018113631    0.035416705    0.031080707    0.038832007    0.0363374      10648        
     41800   1.4487675      269.47076      0              269.47076      1.4172575      0.016871448    0.033142103    0.029204698    0.036057974    0.034163637    10648        
     41900   1.4793929      275.16708      1.5592976      276.72638      1.4452325      0.060600862    0.077169061    0.036461731    0.13279677     0.062248685    10648        
     42000   1.6860698      313.60898      0              313.60898      1.6475541      0.019634922    0.038527514    0.033764131    0.041854577    0.039963835    10648        
     42100   1.613075       300.03194      0              300.03194      1.5762267      0.01878487     0.036859547    0.032302384    0.040047032    0.038229225    10648        
     42200   1.5163494      282.04098      1.0324039      283.07339      1.4752152      0.060454249    0.077293211    0.03099982     0.16785244     0.03302737     10648        
     42300   1.5048374      279.89977      0.039629543    279.93939      1.4752906      0.025262283    0.042237069    0.034485299    0.037760823    0.054465087    10648        
     42400   1.5835267      294.53596      0.034049524    294.57001      1.523247       0.024991204    0.042171069    0.050255924    0.039761983    0.036495299    10648        
     42500   1.6680023      310.24843      0              310.24843      1.6047555      0.01942452     0.037526684    0.033221621    0.04035954     0.03899889     10648        
     42600   1.6548565      307.80332      0.1001146      307.90343      1.5856469      0.033159636    0.050968039    0.053768475    0.040810064    0.058325579    10648        
     42700   1.4795634      275.19878      0.11564921     275.31443      1.4169918      0.030786286    0.046692098    0.034120614    0.071308367    0.034647314    10648        
     42800   1.4893113      277.0119       0.080447281    277.09235      1.4301428      0.029062748    0.045162575    0.03128459     0.04105569     0.063147444    10648        
     42900   1.613681       300.14466      1.2387085      301.38337      1.5631751      0.067666948    0.085429359    0.03184179     0.14483705     0.079609234    10648        
     43000   1.6227969      301.84023      0              301.84023      1.5739521      0.018898086    0.036806356    0.032645783    0.040776585    0.036996698    10648        
     43100   1.5391435      286.28069      0              286.28069      1.4928166      0.01792391     0.034909028    0.030962928    0.038667777    0.035096377    10648        
     43200   1.5295707      284.50014      0              284.50014      1.4835319      0.017812431    0.034691908    0.030770352    0.038420244    0.034885129    10648        
[...]
   1989500   1.5594488      290.05749      8.6931281      298.75061      1.5633933      1.5358623      1.6093574      1.558565       1.6948181      1.574689       2665.6639    
   1989600   1.4188293      263.90225      5.1133535      269.01561      1.5447408      1.0110949      1.089389       1.0864945      0.86113243     1.32054        2665.6639    
   1989700   1.2743441      237.028        11.803282      248.83128      1.3802793      1.8111744      1.8808272      2.0009579      2.1671876      1.474336       2665.6639    
   1989800   1.3862129      257.83561      6.7144125      264.55002      1.4028116      0.85824674     0.9248004      0.63435645     0.51230174     1.627743       2665.6639    
   1989900   1.5843673      294.69232      18.205307      312.89763      1.5938037      1.7545903      1.8297669      2.2194506      1.4148768      1.8549734      2665.6639    
   1990000   1.5549873      289.22764      11.841592      301.06923      1.559885       2.3705951      2.4439701      2.7223245      2.0957333      2.5138525      2665.6639    
   1990100   1.4145043      263.09781      8.1099052      271.20771      1.4473735      1.4157875      1.4851877      1.8647943      1.4698915      1.1208772      2665.6639    
   1990200   1.3180372      245.15492      12.059394      257.21431      1.4268016      1.7251317      1.7970977      1.530687       1.5565643      2.3040416      2665.6639    
   1990300   1.5083825      280.55915      11.148752      291.7079       1.5721244      1.531997       1.6086832      1.6089167      2.6709936      0.54613933     2665.6639    
   1990400   1.5526519      288.79326      11.046534      299.83979      1.6407417      2.1141167      2.1951532      2.017871       1.7816329      2.7859556      2665.6639    
   1990500   1.3362906      248.55006      5.2166835      253.76674      1.4145405      1.2560476      1.3260192      1.1055641      1.5507985      1.3216949      2665.6639    
   1990600   1.3060302      242.92161      16.933551      259.85516      1.3853831      2.4016717      2.4703272      2.7168909      2.735893       1.9581978      2665.6639    
   1990700   1.4790781      275.10853      11.823601      286.93213      1.5376698      1.3028676      1.3776985      0.48316319     1.1886652      2.4612673      2665.6639    
   1990800   1.5152899      281.84392      22.552305      304.39622      1.5521084      2.9767366      3.0512318      3.6615398      2.6853891      2.8067663      2665.6639    
   1990900   1.379956       256.67181      11.897783      268.56959      1.4614499      1.606269       1.6785911      1.2319992      1.809787       1.9939871      2665.6639    
   1991000   1.3465468      250.4577       5.1445757      255.60227      1.3994931      1.281577       1.3496658      2.1455452      1.2534282      0.65002405     2665.6639    
   1991100   1.4541522      270.47231      4.5887226      275.06104      1.5296538      0.97293883     1.0481805      1.0572231      0.59594802     1.4913703      2665.6639    
   1991200   1.5463781      287.62633      12.978128      300.60446      1.6465965      2.227781       2.3096562      2.1799443      1.8610154      2.8880088      2665.6639    
   1991300   1.4742447      274.20951      16.487215      290.69672      1.5329276      1.8263793      1.9009921      2.1290738      1.9277291      1.6461733      2665.6639    
   1991400   1.3594058      252.84948      5.8470711      258.69655      1.4587549      1.4233974      1.4964238      1.6001473      1.6356724      1.2534516      2665.6639    
   1991500   1.319865       245.49489      4.2658001      249.76069      1.4666207      0.85772131     0.93332173     0.38618831     1.4489704      0.96480647     2665.6639    
   1991600   1.4313649      266.23386      6.7400921      272.97396      1.6002754      1.3957494      1.4786478      1.9713025      1.690249       0.77439201     2665.6639    
   1991700   1.5410037      286.62669      5.5911982      292.21789      1.6278285      1.665773       1.7461451      0.77838551     3.0051319      1.4549178      2665.6639    
   1991800   1.3805574      256.78368      4.8048233      261.58851      1.404133       1.2580619      1.325002       1.059079       1.739306       1.1766211      2665.6639    
   1991900   1.3153457      244.65429      11.127434      255.78173      1.4164457      1.9571398      2.0282636      2.2469025      2.5256608      1.3122275      2665.6639    
   1992000   1.4177928      263.70945      13.755585      277.46504      1.5282842      1.7049156      1.7817206      1.3748167      1.3056714      2.6646739      2665.6639    
   1992100   1.561879       290.5095       4.7561837      295.26569      1.5950857      1.1997911      1.2761336      1.140183       1.7349797      0.95323808     2665.6639    
   1992200   1.4249436      265.03951      10.228258      275.26776      1.4589319      1.9936921      2.0636863      2.7466536      1.3260904      2.1183149      2665.6639    
   1992300   1.3014502      242.06974      12.566818      254.63656      1.3432474      2.1547423      2.219675       1.5658153      1.8766771      3.2165326      2665.6639    
   1992400   1.5938101      296.44867      12.272634      308.7213       1.5366324      1.8422556      1.9116526      2.4931512      1.6456664      1.5961401      2665.6639    
   1992500   1.6215207      301.60285      21.795874      323.39872      1.5661778      2.4546643      2.5255321      1.6813352      2.7960549      3.0992063      2665.6639    
   1992600   1.5167328      282.1123       15.532652      297.64495      1.4620004      1.8025113      1.8685224      2.1598307      1.8800067      1.5657296      2665.6639    
   1992700   1.3973037      259.8985       8.0610013      267.9595       1.4166935      1.6491599      1.7164943      1.4394596      1.8558845      1.8541388      2665.6639    
   1992800   1.4605696      271.66594      18.33756       290.0035       1.4854797      2.8403734      2.9111902      2.8642227      3.9120717      1.9572763      2665.6639    
   1992900   1.597982       297.22465      9.689105       306.91376      1.6141367      1.4354537      1.5118963      0.83290251     1.9215416      1.7812447      2665.6639    
   1993000   1.4729663      273.97173      20.359273      294.331        1.4846223      3.0634018      3.1335619      2.5263804      3.6715015      3.2028038      2665.6639    
   1993100   1.4524053      270.14739      3.9594728      274.10686      1.4734204      0.94313066     1.0132008      1.2241087      0.63945177     1.1760419      2665.6639    
   1993200   1.5160419      281.98379      7.7592782      289.74307      1.4879285      1.7564095      1.8248746      1.7291089      1.6718024      2.0737124      2665.6639    
   1993300   1.5413011      286.68201      4.639022       291.32103      1.5433886      0.95256459     1.0250352      1.2453452      0.71679295     1.1129676      2665.6639    
   1993400   1.5174651      282.2485       4.8178696      287.06637      1.537666       0.86368939     0.9367343      1.030048       0.86923664     0.91091822     2665.6639    
   1993500   1.3633278      253.57898      4.6961784      258.27515      1.4114371      0.95641964     1.0248436      1.1941195      1.3860957      0.49431553     2665.6639    
   1993600   1.3517158      251.41914      14.572555      265.9917       1.3478317      2.2374883      2.300511       2.1544396      3.1237115      1.6233819      2665.6639    
   1993700   1.5137304      281.55385      7.4083484      288.9622       1.5600443      0.85908967     0.93439866     0.6260362      1.5018806      0.67527919     2665.6639    
   1993800   1.4302962      266.0351       14.150028      280.18513      1.5504732      2.0920703      2.1703664      1.1316692      3.1966211      2.182809       2665.6639    
   1993900   1.4254728      265.13794      3.9170549      269.05499      1.4891905      1.2392994      1.3120955      0.41923397     2.3736426      1.1434098      2665.6639    
   1994000   1.3826364      257.17038      5.5288254      262.6992       1.4245781      1.0786803      1.1474335      1.2575479      1.2804073      0.90434537     2665.6639    
   1994100   1.5239076      283.44681      11.639068      295.08588      1.5455813      1.7994801      1.8729646      1.1958428      2.2502078      2.1728433      2665.6639    
   1994200   1.6112832      299.69868      7.1872007      306.88588      1.665451       1.1303427      1.2109598      1.655026       1.1799103      0.79794319     2665.6639    
   1994300   1.3851999      257.64718      9.4864471      267.13363      1.5190349      1.7771702      1.8546274      2.7813298      0.47164183     2.3109106      2665.6639    
   1994400   1.4573245      271.06235      11.966765      283.02912      1.4522325      1.9522355      2.0200976      1.8095576      1.9524495      2.2982857      2665.6639    
   1994500   1.5051078      279.95006      3.804626       283.75468      1.5090445      0.94539758     1.0163438      1.5605391      0.83771516     0.65077706     2665.6639    
   1994600   1.5841388      294.64982      10.020247      304.67007      1.5734952      1.9567777      2.0300679      2.100411       2.0449269      1.944866       2665.6639    
   1994700   1.6351585      304.13947      7.9616748      312.10115      1.6706106      1.6876002      1.7675886      1.4873052      1.0950387      2.720422       2665.6639    
   1994800   1.4552644      270.67918      5.2667035      275.94588      1.5228079      1.0947988      1.1693493      1.1226839      1.7623022      0.62306171     2665.6639    
   1994900   1.3263627      246.70346      8.4159601      255.11942      1.4071808      1.4907495      1.5604954      0.75145955     2.1810857      1.7489408      2665.6639    
   1995000   1.4490447      269.52231      7.1750393      276.69735      1.4927524      1.2632013      1.3352336      1.2260316      1.6144298      1.1652393      2665.6639    
   1995100   1.5155524      281.89274      13.370588      295.26333      1.5741697      2.8024975      2.8790412      1.7600677      2.8930699      3.983986       2665.6639    
   1995200   1.4916218      277.44165      10.219177      287.66083      1.5154251      1.7594002      1.8315697      1.4187548      1.2439841      2.8319703      2665.6639    
   1995300   1.342441       249.69403      5.4670289      255.16106      1.3468787      1.4141764      1.4775416      1.6469819      1.5029541      1.2826887      2665.6639    
   1995400   1.3783127      256.36617      6.723775       263.08994      1.3882664      1.2015372      1.2670997      0.77876591     1.912948       1.1095853      2665.6639    
   1995500   1.4141224      263.02676      12.469668      275.49643      1.4490425      1.7989191      1.868493       2.3068598      0.87854811     2.4200709      2665.6639    
   1995600   1.4732566      274.02572      13.097563      287.12328      1.5286506      1.8313249      1.9055842      2.248983       0.98828481     2.4794846      2665.6639    
   1995700   1.4764386      274.61757      20.113243      294.73082      1.5584503      2.9639824      3.0408772      3.6248527      2.7922103      2.7055685      2665.6639    
   1995800   1.4213541      264.37187      11.502736      275.87461      1.4786663      1.942791       2.0147956      2.6492124      1.3526388      2.0425355      2665.6639    
   1995900   1.3742722      255.61464      6.079859       261.69449      1.4072002      1.1840089      1.2515279      1.2764361      1.6890229      0.78912479     2665.6639    
   1996000   1.4421622      268.24216      10.194013      278.43618      1.5021901      1.4665109      1.5397449      1.8317622      1.5722165      1.2152559      2665.6639    
   1996100   1.6250238      302.25442      15.416909      317.67133      1.6379028      2.7067577      2.7841623      1.9031667      3.6143465      2.8349738      2665.6639    
   1996200   1.4573975      271.07593      12.680672      283.7566       1.5615247      1.71779        1.7958578      2.6750758      1.3834587      1.3290389      2665.6639    
   1996300   1.3414372      249.50732      6.9851061      256.49242      1.496572       1.4646162      1.5420109      1.7521553      1.6122331      1.2616442      2665.6639    
   1996400   1.3203142      245.57844      7.7395609      253.318        1.4565171      1.1884902      1.263126       1.8704893      0.65442023     1.2644684      2665.6639    
   1996500   1.447261       269.19055      8.7368377      277.92738      1.5049206      1.4462484      1.5195003      2.1566815      1.0975139      1.3043055      2665.6639    
   1996600   1.6416983      305.35589      8.6749103      314.0308       1.6693848      1.3018597      1.3814294      0.8277844      1.3453959      1.9711079      2665.6639    
   1996700   1.7010114      316.38813      9.7700513      326.15818      1.5936376      1.4060351      1.4757702      2.0220282      0.85638864     1.5488938      2665.6639    
   1996800   1.4698299      273.38836      8.0581645      281.44653      1.4328868      1.0071913      1.0726647      1.0836579      0.29567187     1.8386642      2665.6639    
   1996900   1.3987325      260.16424      13.011897      273.17614      1.4492401      2.7576024      2.8279106      3.0326267      2.1378863      3.3132187      2665.6639    
   1997000   1.4490837      269.52956      7.8296074      277.35917      1.5503008      1.7357174      1.8131235      2.185752       1.4459381      1.8076804      2665.6639    
   1997100   1.4301061      265.99973      12.679136      278.67887      1.5486036      1.9691392      2.0472695      1.8608171      2.2652344      2.0157569      2665.6639    
   1997200   1.3326811      247.87869      11.039554      258.91825      1.396172       1.5157398      1.5841634      1.0833941      1.6160983      2.0529978      2665.6639    
   1997300   1.3476386      250.66079      4.8093414      255.47013      1.3599003      1.0317941      1.0961338      1.5339859      0.7353858      1.0190297      2665.6639    
   1997400   1.4671845      272.89632      13.867847      286.76417      1.4946488      2.4777071      2.5490727      1.9491808      2.4673731      3.230664       2665.6639    
   1997500   1.5901604      295.76983      9.2149175      304.98475      1.5436647      2.1042251      2.1744487      5.0423635      0.24274556     1.2382372      2665.6639    
   1997600   1.4157134      263.32269      20.387062      283.70975      1.4630374      2.4512244      2.5220315      1.3928844      1.6976061      4.475604       2665.6639    
   1997700   1.4651541      272.51866      6.1962084      278.71487      1.4641266      0.88573004     0.95433899     1.1192744      0.7622035      0.98153906     2665.6639    
   1997800   1.5325815      285.06016      13.324596      298.38475      1.471522       2.5101151      2.5762783      2.0166581      3.5728402      2.1393365      2665.6639    
   1997900   1.6121547      299.86078      12.626108      312.48689      1.6012011      2.0471621      2.1217371      2.6244385      1.850231       1.8905418      2665.6639    
   1998000   1.4743511      274.2293       11.198577      285.42788      1.5794443      1.4079252      1.4868782      2.2180427      0.84284221     1.3997497      2665.6639    
   1998100   1.3067032      243.04679      11.908999      254.95579      1.4083654      1.6800296      1.7508006      3.125215       1.2690216      0.85816532     2665.6639    
   1998200   1.2972941      241.29671      13.821387      255.1181       1.4164025      1.432959       1.5049185      1.273573       1.3335404      1.907642       2665.6639    
   1998300   1.458791       271.33512      9.7155341      281.05066      1.517349       1.8710248      1.9449013      1.6434511      3.4128445      0.7784083      2665.6639    
   1998400   1.4343607      266.7911       12.861213      279.65231      1.5277808      1.9070381      1.9830254      2.0524903      1.7462673      2.1503186      2665.6639    
   1998500   1.4292076      265.83261      5.7315932      271.56421      1.5196264      1.2223469      1.2978122      0.97663178     1.6675653      1.2492397      2665.6639    
   1998600   1.3978509      260.00027      2.7861422      262.78642      1.5039808      0.50604004     0.58150256     0.24602498     1.0027293      0.49575345     2665.6639    
   1998700   1.3821602      257.0818       5.4874371      262.56924      1.489691       1.3040806      1.3789382      2.0901392      0.9135399      1.1331354      2665.6639    
   1998800   1.4318383      266.32193      13.783736      280.10567      1.4805188      2.1716726      2.2433625      2.8508242      0.69774786     3.1815156      2665.6639    
   1998900   1.4844427      276.10635      3.8490398      279.95539      1.5292455      0.9359651      1.0097596      1.2844648      1.1048121      0.64000176     2665.6639    
   1999000   1.4052778      261.38167      10.308262      271.68993      1.5003322      1.9293421      2.0041183      2.1855379      2.2111568      1.6156603      2665.6639    
   1999100   1.3831953      257.27433      6.4528489      263.72718      1.4750211      1.2753805      1.3488196      1.1551512      1.7756459      1.1156618      2665.6639    
   1999200   1.4468516      269.1144       9.4315533      278.54595      1.4805178      1.3443398      1.4153312      1.1723889      1.7901848      1.2834199      2665.6639    
   1999300   1.4377412      267.41986      4.6261127      272.04598      1.5507484      1.0426873      1.1206628      1.1834639      1.5308356      0.64768899     2665.6639    
   1999400   1.4990514      278.82355      9.9280885      288.75164      1.5696475      1.8132136      1.8901025      1.5375966      2.4903707      1.6423401      2665.6639    
   1999500   1.3416155      249.54049      16.475447      266.01594      1.4505667      1.9160496      1.9891386      2.2589494      0.81206946     2.896397       2665.6639    
   1999600   1.2721458      236.61911      5.3597114      241.97883      1.3823176      1.2412765      1.311222       1.9299436      0.85999106     1.1437313      2665.6639    
   1999700   1.4034119      261.03462      9.7491856      270.78381      1.5001036      1.6384404      1.7132821      0.97179654     2.0777186      2.0903311      2665.6639    
   1999800   1.6104693      299.5473       6.0253622      305.57266      1.6103452      1.5533186      1.6288261      1.5711775      1.063277       2.2520239      2665.6639    
   1999900   1.4669785      272.858        14.305248      287.16325      1.5077193      2.3198959      2.392492       3.2746515      1.3409711      2.5618534      2665.6639    
   2000000   1.3728394      255.34813      10.647244      265.99538      1.4514729      2.5217688      2.6054209      3.1271504      2.5662593      2.1228532      2285.4736    
Loop time of 7143.89 on 4 procs for 100000 steps with 125 atoms

Performance: 120.943 tau/day, 13.998 timesteps/s, 1.750 katom-step/s
99.2% CPU use with 4 MPI tasks x 1 OpenMP threads

MPI task timing breakdown:
Section |  min time  |  avg time  |  max time  |%varavg| %total
---------------------------------------------------------------
Pair    | 5674.3     | 5948.4     | 6299.9     | 310.8 | 83.27
Neigh   | 0.0021198  | 0.0022327  | 0.0022865  |   0.1 |  0.00
Comm    | 842.02     | 1193.5     | 1467.5     | 693.7 | 16.71
Output  | 0.18092    | 0.21519    | 0.23414    |   4.4 |  0.00
Modify  | 1.3492     | 1.3968     | 1.4253     |   2.7 |  0.02
Other   |            | 0.434      |            |       |  0.01

Nlocal:          31.25 ave          36 max          29 min
Histogram: 1 2 0 0 0 0 0 0 0 1
Nghost:         214.25 ave         220 max         209 min
Histogram: 1 0 1 0 0 0 1 0 0 1
Neighs:            226 ave         257 max         210 min
Histogram: 1 2 0 0 0 0 0 0 0 1

Total # of neighbors = 904
Ave neighs/atom = 7.232
Neighbor list builds = 62
Dangerous builds = 0
next i
jump SELF loop_start
Total wall time: 19:35:41
