LAMMPS data file for polygons
5 atoms
5 bodies
5 atom types
-10 10 xlo xhi
-2 2 ylo yhi
-2 2 zlo zhi

Atoms

1 1 1 1 -8 0 0
2 2 1 1 -2 0 0
3 3 1 1 2 0 0
4 4 1 1 4 0 0
5 5 1 1 8 0 0

Bodies

1 3 79
8 12 6
0.16666666666 0.16666666666 0.16666666666 0 0 0
0.5 0.5 0.5
0.5 -0.5 0.5
-0.5 -0.5 0.5
-0.5 0.5 0.5
0.5 0.5 -0.5
0.5 -0.5 -0.5
-0.5 -0.5 -0.5
-0.5 0.5 -0.5
0 1
1 2
2 3
3 0
4 5
5 6
6 7
7 4
0 4
1 5
2 6
3 7
0 1 2 3
4 5 6 7
0 1 5 4
1 2 6 5
2 3 7 6
3 0 4 7
0.3
2 3 79
8 12 6
0.66666666666 0.66666666666 0.66666666666 0 0 0
1 1 1
1 -1 1
-1 -1 1
-1 1 1
1 1 -1
1 -1 -1
-1 -1 -1
-1 1 -1
0 1
1 2
2 3
3 0
4 5
5 6
6 7
7 4
0 4
1 5
2 6
3 7
0 1 2 3
4 5 6 7
0 1 5 4
1 2 6 5
2 3 7 6
3 0 4 7
0.3
3 3 47
4 6 4
0.2080083823051902 0.2080083823051902 0.2080083823051902 0 0 0
0.0 0.0 1.249024766483406 
-0.5887959215002404 -1.0198244513277526 -0.41634158882780214 
-0.5887959215002404 1.0198244513277526 -0.41634158882780214 
1.1775918430004808 0.0 -0.41634158882780214 
0 1 
0 2 
0 3 
1 2 
1 3 
2 3 
1 2 3 -1
0 1 3 -1
0 2 1 -1
0 3 2 -1
0.3
4 3 119
12 18 10
0.220472368328916 0.154330657830241 0.154330657830241 0 0 0
-0.3637078786572404 0.7274157573144809 0.0 
-0.3637078786572404 0.3637078786572405 0.6299605249474366 
-0.3637078786572404 -0.36370787865724036 0.6299605249474366 
-0.3637078786572404 -0.7274157573144809 0.0
-0.3637078786572404 -0.3637078786572408 -0.6299605249474364 
-0.3637078786572404 0.36370787865723997 -0.6299605249474368 
0.3637078786572404 0.7274157573144809 0.0 
0.3637078786572404 0.3637078786572405 0.6299605249474366 
0.3637078786572404 -0.36370787865724036 0.6299605249474366 
0.3637078786572404 -0.7274157573144809 0.0 
0.3637078786572404 -0.3637078786572408 -0.6299605249474364 
0.3637078786572404 0.36370787865723997 -0.6299605249474368 
0 1 
0 5 
0 6 
1 2 
1 7 
2 3 
2 8 
3 4 
3 9 
4 5 
4 10 
5 11 
6 7 
6 11 
7 8 
8 9 
9 10 
10 11
0 6 11 5 
4 5 11 10 
0 5 4 3
0 3 2 1
3 4 10 9 
2 3 9 8 
6 7 8 9 
6 9 10 11 
0 1 7 6 
1 2 8 7
0.3
5 3 13
2 1 0
1.33333 1.33333 0 0 0 0
0 0 -2
0 0 2
0.5