LAMMPS (22 Jul 2025)
OMP_NUM_THREADS environment is not set. Defaulting to 1 thread.
  using 1 OpenMP thread(s) per MPI task
# 3d rounded 3d

variable    r     index 10
variable    steps index 100000

units       lj
dimension   3
newton on

neighbor     1.0 bin
neigh_modify every 100 delay 0 check yes

atom_style  body rounded/polyhedron 1 30

read_data   data.3d
Reading data file ...
  orthogonal box = (-1 -1 -1) to (1 1 1)
  4 by 4 by 4 MPI processor grid
  reading atoms ...
  1 atoms
  1 bodies
  read_data CPU = 0.013 seconds

replicate   $r $r $r
replicate   10 $r $r
replicate   10 10 $r
replicate   10 10 10
Replication is creating a 10x10x10 = 1000 times larger system...
  orthogonal box = (-1 -1 -1) to (19 19 19)
  4 by 4 by 4 MPI processor grid
  1000 atoms
  replicate CPU = 0.001 seconds

change_box all x final -10 10 y final -10 10 z final -10 10
Changing box ...
  orthogonal box = (-10 -1 -1) to (10 19 19)
  orthogonal box = (-10 -10 -1) to (10 10 19)
  orthogonal box = (-10 -10 -10) to (10 10 10)

velocity all create 3 1888 rot yes dist gaussian
set atom * quat/random 6741
Setting atom values ...
  1000 settings made for quat/random

variable cut_inner  equal 0.0
variable k_n        equal 500
variable k_na       equal 0
variable c_n        equal 0
variable c_t        equal 0
variable mu         equal 0
variable A_ua       equal 1

pair_style body/rounded/polyhedron ${c_n} ${c_t} ${mu} ${A_ua} ${cut_inner}
pair_style body/rounded/polyhedron 0 ${c_t} ${mu} ${A_ua} ${cut_inner}
pair_style body/rounded/polyhedron 0 0 ${mu} ${A_ua} ${cut_inner}
pair_style body/rounded/polyhedron 0 0 0 ${A_ua} ${cut_inner}
pair_style body/rounded/polyhedron 0 0 0 1 ${cut_inner}
pair_style body/rounded/polyhedron 0 0 0 1 0
pair_coeff * * ${k_n} ${k_na}
pair_coeff * * 500 ${k_na}
pair_coeff * * 500 0

comm_modify vel yes

timestep     0.0001

compute 1 all temp/body
compute 1p all pressure 1
fix          1 all npt/body temp 1.5 1.5 0.01 iso 1.0 20 0.1

thermo_style custom step temp ke pe etotal c_1 press c_1p vol

thermo       1000
thermo_modify norm no

compute 10 all property/atom x y z quatw quati quatj quatk
dump mydump all custom 1000 dump.quat id c_10[1] c_10[2] c_10[3] c_10[4] c_10[5] c_10[6] c_10[7]

run          5000000
Generated 0 of 0 mixed pair_coeff terms from geometric mixing rule
Neighbor list info ...
  update: every = 100 steps, delay = 0 steps, check = yes
  max neighbors/atom: 2000, page size: 100000
  master list distance cutoff = 2.7320508
  ghost atom cutoff = 2.7320508
  binsize = 1.3660254, bins = 15 15 15
  1 neighbor lists, perpetual/occasional/extra = 1 0 0
  (1) pair body/rounded/polyhedron, perpetual
      attributes: half, newton on
      pair build: half/bin/atomonly/newton
      stencil: half/bin/3d
      bin: standard
Per MPI rank memory allocation (min/avg/max) = 7.559 | 7.58 | 7.6 Mbytes
   Step          Temp          KinEng         PotEng         TotEng          c_1           Press           c_1p          Volume    
         0   3              4495.5         2.112788       4497.6128      1.4992496      0.39507763     0.39507763     8000         
      1000   2.2000763      3296.8143      199.32666      3496.141       1.5044849      0.93630615     1.0506427      7080.7546    
      2000   1.8742704      2808.5942      136.65281      2945.247       1.5062329      0.77233579     0.92743253     7340.9888    
      3000   1.6854802      2525.6921      225.38325      2751.0753      1.4724393      0.9266138      1.09363        7541.8536    
      4000   1.6528499      2476.7956      186.43472      2663.2304      1.5051145      0.86036248     1.0402724      7545.5916    
      5000   1.6419109      2460.4034      169.81705      2630.2205      1.5322527      0.81563419     1.004784       7521.5713    
      6000   1.6008535      2398.879       195.53334      2594.4123      1.5267966      0.84719167     1.0391367      7568.907     
      7000   1.5099036      2262.5905      175.24711      2437.8376      1.4791841      0.75011761     0.94135259     7574.4263    
      8000   1.5126808      2266.7521      205.89462      2472.6467      1.4587061      0.87645896     1.0637758      7499.5167    
      9000   1.518688       2275.754       163.58046      2439.3344      1.4900789      0.73846914     0.93426607     7464.3584    
     10000   1.5397668      2307.3405      234.6265       2541.967       1.5176529      0.86825788     1.0681917      7480.2826    
     11000   1.4817441      2220.3936      187.14347      2407.5371      1.4929667      0.81344639     1.017606       7367.6562    
     12000   1.5022726      2251.1555      160.98563      2412.1411      1.4959636      0.77725435     0.97786589     7425.5989    
     13000   1.5135663      2268.0791      182.77991      2450.859       1.5553181      0.83585628     1.0518369      7394.3117    
     14000   1.4776201      2214.2137      194.89244      2409.1062      1.4799916      0.83315552     1.0338288      7386.9363    
     15000   1.4701106      2202.9608      230.42848      2433.3892      1.4673501      0.92319301     1.1216419      7380.1985    
     16000   1.4414123      2159.9563      193.91266      2353.869       1.4677311      0.91331757     1.1212446      7185.3278    
     17000   1.4937652      2238.4072      200.99822      2439.4054      1.5329516      0.868741       1.0843607      7291.0735    
     18000   1.5122383      2266.0891      194.88421      2460.9733      1.5334237      0.91352809     1.1269603      7283.7536    
     19000   1.4717003      2205.343       187.99167      2393.3346      1.4971576      0.84160056     1.0503168      7295.0209    
     20000   1.4638294      2193.5484      170.13161      2363.68        1.4790729      0.82136545     1.0235744      7389.8867    
     21000   1.4834433      2222.9398      171.10551      2394.0453      1.5295945      0.80501805     1.0188302      7369.5508    
     22000   1.4206103      2128.7845      160.24116      2289.0257      1.4689228      0.77188371     0.9781052      7357.0754    
     23000   1.4950002      2240.2578      213.10428      2453.3621      1.5337822      0.93630732     1.1535765      7237.6828    
     24000   1.499631       2247.197       204.63107      2451.8281      1.4858488      0.92505999     1.1292996      7207.6152    
     25000   1.5016994      2250.2966      199.90017      2450.1968      1.4928932      0.91902834     1.1253636      7192.6414    
     26000   1.5040221      2253.7771      239.19025      2492.9673      1.5039766      0.87962992     1.0875537      7233.088     
     27000   1.5427983      2311.8832      207.23132      2519.1146      1.5276699      0.88170603     1.0909909      7227.2609    
     28000   1.5135834      2268.1048      192.58952      2460.6943      1.511367       0.90640083     1.1174256      7151.5429    
     29000   1.5009063      2249.1081      184.16183      2433.27        1.5035148      0.84216199     1.0494845      7264.6277    
     30000   1.4681536      2200.0281      175.9157       2375.9439      1.4877406      0.81579996     1.0236856      7250.6593    
     31000   1.4670217      2198.332       220.25058      2418.5826      1.4969858      0.93620984     1.1484642      7193.8232    
     32000   1.4761003      2211.9363      200.54424      2412.4806      1.5011478      0.88502377     1.0950304      7267.2487    
     33000   1.4880628      2229.8621      233.84591      2463.708       1.4606541      0.92444049     1.1239442      7184.1921    
     34000   1.4880098      2229.7827      193.99602      2423.7787      1.4665273      0.8795681      1.0827274      7112.9722    
     35000   1.5467648      2317.8271      151.81508      2469.6422      1.5345141      0.79956812     1.0128226      7138.3054    
     36000   1.5284623      2290.4008      215.33103      2505.7318      1.5041312      0.97100605     1.1796896      7091.2361    
     37000   1.4883176      2230.244       196.72979      2426.9738      1.4848982      0.88069375     1.0877069      7156.4631    
     38000   1.4789439      2216.1975      207.39876      2423.5962      1.4930323      0.94905827     1.1592674      7169.5586    
     39000   1.5148737      2270.0382      245.97502      2516.0133      1.4853232      1.0386816      1.2454454      7040.8947    
     40000   1.5623055      2341.1148      217.90742      2559.0222      1.5451562      1.0185234      1.2352988      7048.8806    
     41000   1.524203       2284.0183      216.78131      2500.7996      1.5075501      0.95442666     1.163694       7124.4449    
     42000   1.491227       2234.6037      188.23147      2422.8351      1.4562594      0.89584503     1.0974187      7051.1533    
     43000   1.5063213      2257.2224      207.3535       2464.5759      1.5149552      0.95623477     1.172652       7040.0143    
     44000   1.5024409      2251.4076      233.83145      2485.2391      1.4804843      1.0323481      1.2411471      6985.4249    
     45000   1.5276536      2289.1889      198.33437      2487.5233      1.4957399      0.99964607     1.2144986      6813.3148    
     46000   1.5360726      2301.8048      200.21433      2502.0191      1.5295963      0.899321       1.116686       7007.2295    
     47000   1.4984273      2245.3933      185.08026      2430.4735      1.4797785      0.90636405     1.1188725      6875.7204    
     48000   1.5353378      2300.7037      198.08934      2498.793       1.4958256      0.93923251     1.1483472      6964.3753    
     49000   1.5186477      2275.6936      198.82541      2474.519       1.5319522      0.9342019      1.1527734      7069.739     
     50000   1.501821       2250.4787      170.75906      2421.2378      1.5026513      0.84628777     1.0595847      7048.7696    
     51000   1.5511084      2324.3359      211.68068      2536.0166      1.4988457      0.95330921     1.1592242      7025.4002    
     52000   1.4868105      2227.9856      236.60808      2464.5936      1.4596186      1.0449018      1.2514053      6936.7041    
     53000   1.5234416      2282.8772      206.484        2489.3612      1.5152974      0.97299226     1.1902081      6938.5434    
     54000   1.5437904      2313.3699      211.24391      2524.6138      1.5068415      0.98962693     1.198871       7024.9533    
     55000   1.4672802      2198.7194      247.51579      2446.2352      1.4854087      1.0686383      1.2860416      6915.8065    
     56000   1.5031648      2252.4925      253.84284      2506.3353      1.5050914      1.1152536      1.3347717      6865.1104    
     57000   1.5186625      2275.7158      194.87407      2470.5898      1.5076728      0.96897364     1.1853123      6918.2927    
     58000   1.5083129      2260.2069      213.93721      2474.1441      1.497533       0.96241046     1.1765399      6943.2948    
     59000   1.5423714      2311.2435      231.87472      2543.1183      1.534502       0.98573483     1.2093949      6825.7187    
     60000   1.4685004      2200.5478      238.03474      2438.5825      1.4633866      1.0115389      1.2245546      6845.871     
     61000   1.4672924      2198.7377      243.31357      2442.0513      1.4941782      1.0327724      1.251854       6942.7883    
     62000   1.5398379      2307.4471      199.20688      2506.654       1.5291095      0.96552248     1.1852236      6911.1712    
     63000   1.4278679      2139.6601      203.68698      2343.347       1.4415124      0.9381007      1.1460733      6996.8034    
     64000   1.499307       2246.7115      225.23764      2471.9491      1.4790651      1.043355       1.2546225      6905.1942    
     65000   1.4743924      2209.3771      240.46901      2449.8461      1.4795461      1.0694369      1.2864612      6841.1444    
     66000   1.4446721      2164.8411      208.37529      2373.2164      1.4652456      1.0314311      1.2496965      6807.3025    
     67000   1.4719441      2205.7083      220.88426      2426.5925      1.498538       0.97835566     1.2029715      6789.8395    
     68000   1.4955193      2241.0357      242.23091      2483.2666      1.5008311      1.0905261      1.314633       6720.6212    
     69000   1.4402225      2158.1733      220.3687       2378.542       1.4465732      1.0309746      1.2466756      6735.796     
     70000   1.5454238      2315.8175      244.29924      2560.1167      1.526924       1.1276999      1.3526456      6705.8063    
     71000   1.4770164      2213.309       219.77211      2433.0812      1.4734803      1.0022029      1.2191586      6775.3346    
     72000   1.4823941      2221.3675      238.63076      2459.9983      1.4563248      1.114094       1.3261779      6743.94      
     73000   1.5232175      2282.5415      233.67459      2516.2161      1.5171351      1.0894475      1.3130131      6758.9068    
     74000   1.4932124      2237.5788      237.47845      2475.0573      1.5317097      0.99460174     1.2236625      6854.8119    
     75000   1.5183734      2275.2825      235.68847      2510.971       1.5234315      1.0429196      1.265673       6861.7787    
     76000   1.4423848      2161.4136      251.71883      2413.1324      1.4646358      1.0912427      1.3093255      6817.8876    
     77000   1.5222427      2281.0807      226.51256      2507.5932      1.4982813      1.01549        1.234067       6745.1949    
     78000   1.5383951      2305.2851      253.23437      2558.5194      1.5507324      1.0683019      1.3020278      6687.5643    
     79000   1.4981885      2245.0355      190.77922      2435.8147      1.5182707      0.98931688     1.2167357      6764.315     
     80000   1.5024278      2251.388       222.82029      2474.2083      1.4953443      1.1212701      1.3460523      6620.9327    
     81000   1.4822475      2221.1479      200.125        2421.2729      1.5470991      0.93968891     1.1811981      6674.2213    
     82000   1.4404458      2158.508       199.51942      2358.0274      1.4827742      1.0103731      1.2401257      6637.8386    
     83000   1.4186352      2125.8249      221.85472      2347.6796      1.4542516      1.0614643      1.2864343      6622.363     
     84000   1.5644875      2344.3845      205.60728      2549.9917      1.5443311      1.0145608      1.2425057      6686.6789    
     85000   1.4917613      2235.4043      254.33508      2489.7394      1.4964736      1.1053877      1.32983        6688.4952    
     86000   1.4956334      2241.2066      208.17369      2449.3803      1.4760556      1.0152242      1.2319752      6719.6821    
     87000   1.5135275      2268.021       276.02257      2544.0435      1.5121512      1.1983247      1.4236497      6704.8757    
     88000   1.5095643      2262.0821      248.38139      2510.4635      1.512636       1.0826031      1.3086512      6705.2289    
     89000   1.5394123      2306.8093      219.69315      2526.5024      1.5282718      1.0839121      1.3145759      6577.29      
     90000   1.4664983      2197.5477      281.09946      2478.6471      1.4798244      1.2163794      1.4430362      6587.6573    
     91000   1.4709436      2204.2089      275.50894      2479.7179      1.4682326      1.2316839      1.4525572      6635.1364    
     92000   1.5036452      2253.2123      265.45977      2518.672       1.513829       1.1660617      1.3972842      6591.064     
     93000   1.4801907      2218.0658      246.12402      2464.1898      1.4755617      1.0563806      1.2782832      6628.752     
     94000   1.4646762      2194.8173      231.30044      2426.1178      1.4697214      1.1251356      1.3496945      6567.3704    
     95000   1.4904988      2233.5124      252.535        2486.0474      1.5173139      1.1681911      1.4034886      6562.3411    
     96000   1.4738911      2208.6258      200.54563      2409.1714      1.5115893      1.005413       1.241331       6566.8996    
     97000   1.462755       2191.9384      231.62808      2423.5665      1.4785648      1.0678989      1.2953028      6571.383     
     98000   1.5138535      2268.5094      245.68356      2514.193       1.4986146      1.2558501      1.4860698      6443.3723    
     99000   1.5139002      2268.5794      246.94484      2515.5243      1.4802642      1.1571341      1.3781228      6546.3163    
    100000   1.4633753      2192.8678      231.9269       2424.7947      1.4762198      1.1485618      1.3801761      6429.0147    
    101000   1.5399016      2307.5426      251.22798      2558.7705      1.5566673      1.1684494      1.4102363      6507.4504    
    102000   1.493887       2238.5896      257.22744      2495.8171      1.4834064      1.2028859      1.4293837      6503.0955    
    103000   1.5499418      2322.5879      229.6585       2552.2464      1.5374048      1.0997279      1.3330688      6534.9885    
    104000   1.4856111      2226.1882      258.76833      2484.9565      1.5050384      1.1984183      1.4340661      6469.1731    
    105000   1.4285072      2140.6181      259.1663       2399.7844      1.4383374      1.1975998      1.423443       6412.2286    
    106000   1.5224099      2281.3312      223.19095      2504.5221      1.4904905      1.0949491      1.3191148      6506.8082    
    107000   1.5068608      2258.0309      249.8341       2507.865       1.4919002      1.1742842      1.4046658      6410.9053    
    108000   1.4664601      2197.4905      235.58311      2433.0736      1.4955089      1.0939103      1.3281542      6508.2933    
    109000   1.5618142      2340.3786      217.18411      2557.5627      1.5513883      1.1091528      1.3467011      6486.9868    
    110000   1.4819182      2220.6544      271.91365      2492.5681      1.4835288      1.2181108      1.4493208      6423.33      
    111000   1.4577715      2184.4706      277.98453      2462.4551      1.4797296      1.2716332      1.5059867      6407.6951    
    112000   1.484887       2225.1031      227.00229      2452.1054      1.4997025      1.1637753      1.3998887      6414.305     
    113000   1.4313414      2144.865       208.20177      2353.0668      1.4882959      1.0735514      1.3135004      6439.6727    
    114000   1.4470446      2168.3964      275.35976      2443.7561      1.4892505      1.2309057      1.4707289      6385.5964    
    115000   1.451238       2174.6802      290.63344      2465.3136      1.4703223      1.2409885      1.4721817      6442.1757    
    116000   1.5274373      2288.8648      257.52159      2546.3864      1.5191049      1.2037813      1.4399882      6396.0048    
    117000   1.5331765      2297.465       239.97714      2537.4421      1.5570841      1.1552171      1.4044542      6343.2262    
    118000   1.4781491      2215.0065      248.72448      2463.731       1.4950368      1.1982551      1.4339961      6413.4278    
    119000   1.4608467      2189.0788      252.44832      2441.5271      1.4759034      1.1532732      1.3850559      6432.5123    
    120000   1.5321617      2295.9443      320.53547      2616.4797      1.5146424      1.4015926      1.636          6386.9166    
    121000   1.5101972      2263.0305      240.85292      2503.8834      1.5460018      1.1422485      1.3890793      6408.3187    
    122000   1.4984787      2245.4704      267.48058      2512.951       1.5016989      1.2320435      1.4701076      6321.4729    
    123000   1.4829862      2222.2548      250.81401      2473.0688      1.4778356      1.2451715      1.4770391      6351.4277    
    124000   1.5063913      2257.3274      224.61156      2481.9389      1.528436       1.1695324      1.4109488      6422.3419    
    125000   1.5268035      2287.9151      229.93152      2517.8466      1.5173968      1.1682297      1.4050109      6368.7458    
    126000   1.4664754      2197.5133      293.0131       2490.5264      1.4635504      1.3919687      1.6225028      6335.8447    
    127000   1.505244       2255.6081      256.01529      2511.6234      1.50079        1.2224891      1.4582107      6347.9123    
    128000   1.5381714      2304.9499      284.17288      2589.1228      1.5187035      1.3118458      1.5503553      6285.9347    
    129000   1.4479594      2169.7671      270.69646      2440.4636      1.4605906      1.283434       1.5196224      6237.4315    
    130000   1.5587679      2335.8137      244.25978      2580.0735      1.5537742      1.2302582      1.4757819      6308.0911    
    131000   1.4713967      2204.8879      219.85456      2424.7425      1.4848475      1.1463057      1.3854303      6265.7066    
    132000   1.4724722      2206.4996      238.64821      2445.1478      1.463658       1.1784817      1.4099004      6286.6682    
    133000   1.5543052      2329.1263      281.0293       2610.1556      1.559071       1.2914858      1.5406132      6277.2379    
    134000   1.4580034      2184.8181      246.03614      2430.8542      1.4760226      1.2256197      1.463818       6272.185     
    135000   1.4902467      2233.1347      299.78277      2532.9174      1.4640183      1.4082084      1.6397316      6210.2478    
    136000   1.5281526      2289.9367      260.20975      2550.1464      1.4993164      1.2820873      1.5153079      6305.2278    
    137000   1.4902294      2233.1087      254.26108      2487.3698      1.5039559      1.2219106      1.4631537      6291.0351    
    138000   1.4732851      2207.7177      271.66656      2479.3842      1.4616532      1.2640018      1.493453       6319.571     
    139000   1.5495962      2322.07        262.20662      2584.2766      1.5081332      1.3419082      1.5770651      6237.1633    
    140000   1.4298089      2142.5686      292.58593      2435.1545      1.4646986      1.2966681      1.5345486      6303.8106    
    141000   1.5149748      2270.1898      259.92995      2530.1197      1.5678046      1.2203634      1.479254       6259.7168    
    142000   1.5306566      2293.6889      311.10314      2604.7921      1.5125388      1.3485428      1.585972       6294.2523    
    143000   1.4891254      2231.4544      225.80246      2457.2569      1.4845292      1.1479466      1.3834544      6284.0263    
    144000   1.4553249      2180.8043      270.82725      2451.6316      1.4584602      1.2895083      1.5207638      6320.2502    
    145000   1.5651942      2345.4436      296.98445      2642.428       1.5271918      1.3673577      1.6079778      6189.1247    
    146000   1.4849805      2225.2432      277.69328      2502.9365      1.4605314      1.3485825      1.5797116      6213.4391    
    147000   1.5132351      2267.5828      324.27583      2591.8586      1.4859175      1.40996        1.6450356      6204.9283    
    148000   1.5090285      2261.2793      246.71213      2507.9914      1.5283518      1.2021598      1.4481108      6292.5381    
    149000   1.4992798      2246.6708      257.74734      2504.4182      1.4899319      1.2376787      1.4753351      6229.9741    
    150000   1.4959815      2241.7283      302.78331      2544.5116      1.4772011      1.3876846      1.6214983      6237.6146    
    151000   1.4977609      2244.3947      221.35576      2465.7505      1.4742247      1.1712189      1.4019658      6287.0283    
    152000   1.5840076      2373.6354      297.73404      2671.3694      1.5589671      1.4334478      1.681322       6188.4273    
    153000   1.4943183      2239.236       276.08552      2515.3215      1.496004       1.3534757      1.5976617      6133.3907    
    154000   1.496093       2241.8954      238.74466      2480.64        1.5043747      1.2088256      1.4506492      6255.1729    
    155000   1.5452235      2315.5175      268.16469      2583.6821      1.5111176      1.2943795      1.5325831      6200.769     
    156000   1.4621685      2191.0595      287.71579      2478.7752      1.4778518      1.342344       1.5818136      6236.7795    
    157000   1.5798242      2367.3666      300.95861      2668.3252      1.5614829      1.4701449      1.7201333      6172.9253    
    158000   1.4912862      2234.6924      292.85355      2527.5459      1.5133517      1.3577733      1.6053101      6202.6957    
    159000   1.4406907      2158.8751      296.64589      2455.521       1.4892359      1.2975538      1.54312        6261.9878    
    160000   1.5338979      2298.5461      339.19831      2637.7444      1.5250803      1.4825972      1.7276096      6188.5498    
    161000   1.5014594      2249.9369      313.23101      2563.1679      1.4763542      1.4442299      1.6819334      6105.3969    
    162000   1.4603779      2188.3763      293.71818      2482.0945      1.4740177      1.3626838      1.6056755      6122.202     
    163000   1.4846237      2224.7087      294.70455      2519.4132      1.4881557      1.4125441      1.6576435      6086.0372    
    164000   1.548642       2320.64        248.24103      2568.881       1.5194972      1.323567       1.5693449      6063.9372    
    165000   1.5106313      2263.6809      301.8101       2565.491       1.5017615      1.4709214      1.714581       6126.9937    
    166000   1.4734086      2207.9029      286.80054      2494.7034      1.4553889      1.2971797      1.5319449      6122.6597    
    167000   1.5541802      2328.939       266.9906       2595.9296      1.5474599      1.3094105      1.5614578      6112.9255    
    168000   1.5458331      2316.4309      327.77203      2644.2029      1.5056065      1.5653461      1.8080354      6038.2562    
    169000   1.4542397      2179.1782      295.66821      2474.8464      1.4661991      1.3981238      1.6418889      6063.8155    
    170000   1.4990375      2246.3076      282.79849      2529.1061      1.5184615      1.3745481      1.6260373      6115.0383    
    171000   1.4999142      2247.6214      263.44208      2511.0635      1.5058257      1.3093694      1.5565477      6115.9537    
    172000   1.4753436      2210.8024      305.73118      2516.5336      1.4694021      1.3767383      1.6182779      6058.9098    
    173000   1.5179709      2274.6794      307.43624      2582.1156      1.5231255      1.4468932      1.6954703      6148.0933    
    174000   1.4920085      2235.7747      304.5904       2540.3651      1.4837132      1.4218338      1.6648976      6070.1187    
    175000   1.5132692      2267.6338      278.50486      2546.1387      1.4643959      1.347391       1.5806416      6068.8862    
    176000   1.4775502      2214.109       290.70417      2504.8132      1.4660518      1.4023718      1.6424764      6058.0474    
    177000   1.5571459      2333.3832      338.47821      2671.8614      1.5112776      1.5472198      1.7892848      6053.973     
    178000   1.5051632      2255.4871      310.72047      2566.2076      1.5056672      1.5245036      1.7729482      6062.4006    
    179000   1.5142853      2269.1565      255.85275      2525.0093      1.4967779      1.3120834      1.5560078      6064.5349    
    180000   1.4670186      2198.3273      295.47447      2493.8018      1.4665778      1.4237599      1.6640249      6102.1695    
    181000   1.4844975      2224.5195      296.91684      2521.4364      1.5218912      1.419455       1.6778011      6035.4978    
    182000   1.4366809      2152.8663      253.99121      2406.8575      1.4464589      1.2614763      1.4995152      6117.6025    
    183000   1.5131367      2267.4353      316.3287       2583.764       1.5588999      1.5462501      1.8126824      6022.609     
    184000   1.5334619      2297.8927      278.9289       2576.8216      1.4974937      1.3846167      1.6285907      5990.6458    
    185000   1.4953072      2240.7179      284.7666       2525.4845      1.4888718      1.3670613      1.614227       5997.7683    
    186000   1.4812621      2219.6712      305.10146      2524.7727      1.4919363      1.5454718      1.7945247      6033.2562    
    187000   1.4652265      2195.6419      329.89025      2525.5321      1.4825         1.5089735      1.7556645      6079.4946    
    188000   1.500951       2249.175       294.07975      2543.2548      1.5273938      1.41231        1.6675724      6087.1088    
    189000   1.487002       2228.2725      283.38139      2511.6539      1.4742551      1.3951436      1.6370414      6041.894     
    190000   1.4979451      2244.6708      265.99907      2510.6699      1.5299529      1.3962196      1.655491       6024.3015    
    191000   1.4375509      2154.17        289.1049       2443.2749      1.5167386      1.3868449      1.6511779      6037.2611    
    192000   1.5078942      2259.5794      306.11177      2565.6912      1.4893925      1.4831933      1.7299871      5960.0751    
    193000   1.5192073      2276.5321      320.38164      2596.9137      1.4754695      1.5604328      1.8029573      5903.6313    
    194000   1.5177276      2274.3148      302.49586      2576.8107      1.5251754      1.4155628      1.6722233      5971.3743    
    195000   1.5221591      2280.9554      298.42126      2579.3766      1.5027924      1.4817686      1.7315624      5938.6779    
    196000   1.5466235      2317.6154      331.78651      2649.4019      1.5061071      1.5903588      1.8356233      5975.7166    
    197000   1.5211569      2279.4536      302.61163      2582.0652      1.5127071      1.4299741      1.6796596      6024.6423    
    198000   1.5119046      2265.589       302.01082      2567.5998      1.5002556      1.4877788      1.7371388      5969.7545    
    199000   1.4513289      2174.8164      320.71208      2495.5285      1.45711        1.5029987      1.7492402      5940.8552    
    200000   1.4879669      2229.7184      248.87425      2478.5927      1.5115858      1.3259327      1.5847403      5931.7458    
    201000   1.495127       2240.4478      315.35935      2555.8072      1.5022889      1.5647243      1.8221323      5864.0108    
    202000   1.494349       2239.2819      335.7654       2575.0473      1.4874117      1.6176492      1.8707292      5849.857     
    203000   1.5500721      2322.783       298.74147      2621.5245      1.5422091      1.533073       1.791747       5931.6137    
    204000   1.4835233      2223.0597      302.81465      2525.8743      1.5000585      1.4025294      1.6556512      5991.4903    
    205000   1.4197283      2127.4629      313.95352      2441.4164      1.4489104      1.5206567      1.7688365      5955.6138    
    206000   1.4260084      2136.8735      303.83569      2440.7092      1.473973       1.4461006      1.7012364      5965.0191    
    207000   1.4676248      2199.2358      288.85794      2488.0937      1.4946931      1.539392       1.7967818      5912.1781    
    208000   1.4926282      2236.7034      271.39204      2508.0954      1.4996211      1.386017       1.6400319      5931.1763    
    209000   1.498428       2245.3943      293.92992      2539.3242      1.4971133      1.5025884      1.7552044      5921.239     
    210000   1.4910809      2234.3847      315.58376      2549.9684      1.5154679      1.5354174      1.7969552      5887.6028    
    211000   1.4781266      2214.9728      273.12885      2488.1016      1.5109164      1.393228       1.6510612      5987.1021    
    212000   1.4898343      2232.5167      349.00334      2581.52        1.4743149      1.6770033      1.9259162      5860.7303    
    213000   1.5666298      2347.5948      319.42751      2667.0223      1.5400914      1.5876787      1.8453011      5875.1865    
    214000   1.4861479      2226.9926      299.58204      2526.5746      1.5266419      1.5529169      1.819695       5874.1532    
    215000   1.5257194      2286.2906      293.9997       2580.2903      1.51595        1.382022       1.637034       5906.3499    
    216000   1.4593474      2186.8321      318.2544       2505.0865      1.4596361      1.5504712      1.7980188      5897.5514    
    217000   1.4795676      2217.1321      335.57491      2552.707       1.5096355      1.6377906      1.9008042      5853.9675    
    218000   1.4643849      2194.3808      352.18975      2546.5705      1.4709185      1.6813923      1.9353967      5816.6144    
    219000   1.4729247      2207.1776      300.5539       2507.7315      1.475845       1.5925229      1.8450963      5854.7848    
    220000   1.4982492      2245.1264      299.83985      2544.9663      1.5432939      1.5335701      1.8062321      5825.1382    
    221000   1.5051287      2255.4353      324.21691      2579.6522      1.4865273      1.6673028      1.9218922      5765.9308    
    222000   1.5432285      2312.5279      319.62396      2632.1519      1.4923264      1.62394        1.8758583      5721.9946    
    223000   1.4949043      2240.1142      326.35425      2566.4684      1.4845101      1.6372546      1.8934491      5753.9343    
    224000   1.5387261      2305.781       330.05702      2635.8381      1.524014       1.7089596      1.9721806      5734.0279    
    225000   1.5523837      2326.247       332.27194      2658.519       1.522076       1.6027681      1.86078        5781.8983    
    226000   1.4902301      2233.1098      313.4547       2546.5645      1.4893068      1.586626       1.8455479      5748.3897    
    227000   1.4887925      2230.9555      302.2712       2533.2267      1.4994989      1.5138952      1.7755356      5772.0232    
    228000   1.5252717      2285.6196      270.19379      2555.8134      1.5042201      1.5091046      1.7644786      5807.9101    
    229000   1.5011582      2249.4855      333.88221      2583.3677      1.5031363      1.5693371      1.8266177      5850.083     
    230000   1.5110555      2264.3167      299.97793      2564.2946      1.4908211      1.5358143      1.7887956      5813.1054    
    231000   1.5018693      2250.5511      301.07803      2551.6291      1.5113975      1.5848543      1.8466471      5809.6188    
    232000   1.4455928      2166.2209      350.07321      2516.2941      1.4685725      1.6746332      1.9315336      5805.8652    
    233000   1.5344451      2299.3659      332.97621      2632.3421      1.5097293      1.6681296      1.9269731      5737.2048    
    234000   1.532472       2296.4093      342.69581      2639.1051      1.4923263      1.6937204      1.9463456      5748.5185    
    235000   1.5467103      2317.7454      358.8585       2676.6039      1.5218105      1.7518233      2.0090111      5820.399     
    236000   1.5329176      2297.077       347.28212      2644.3591      1.5018931      1.5727292      1.8291562      5736.1342    
    237000   1.5380235      2304.7282      280.2383       2584.9665      1.5070401      1.4094965      1.6643824      5791.171     
    238000   1.4944877      2239.4898      321.27468      2560.7645      1.4953567      1.5812667      1.842278       5732.413     
    239000   1.4673906      2198.8848      381.5413       2580.4261      1.4984224      1.8241007      2.0936954      5673.0449    
    240000   1.4930814      2237.3825      353.14905      2590.5315      1.4732733      1.7497905      2.0047859      5700.0446    
    241000   1.5075534      2259.0688      308.56083      2567.6296      1.539589       1.556711       1.829711       5756.7497    
    242000   1.4771954      2213.5773      343.25851      2556.8358      1.4944047      1.5904807      1.8526859      5764.9375    
    243000   1.4787013      2215.8339      371.39511      2587.2291      1.4650648      1.7947673      2.0456599      5785.1114    
    244000   1.5109436      2264.149       334.16716      2598.3162      1.5144505      1.6612472      1.9258495      5736.7378    
    245000   1.4896856      2232.2938      317.65973      2549.9536      1.510632       1.6678113      1.9317453      5802.8054    
    246000   1.497062       2243.3474      332.34113      2575.6885      1.4961467      1.6677858      1.9251171      5810.5334    
    247000   1.5283205      2290.1882      361.2897       2651.4779      1.5041455      1.8217483      2.078669       5760.5115    
    248000   1.4666258      2197.7387      287.46035      2485.1991      1.4317878      1.4827636      1.7232616      5808.7161    
    249000   1.5590676      2336.2628      313.04513      2649.308       1.5371202      1.6537889      1.9168403      5760.0706    
    250000   1.5071334      2258.4394      307.13405      2565.5735      1.4812639      1.6186273      1.8715639      5754.0913    
    251000   1.4754829      2211.0111      354.16876      2565.1798      1.4619004      1.7025885      1.9572246      5687.8481    
    252000   1.4958313      2241.5031      356.23153      2597.7347      1.5371026      1.7704505      2.0482445      5681.6665    
    253000   1.4250211      2135.3941      324.76632      2460.1605      1.4420078      1.6654563      1.923616       5651.452     
    254000   1.5120359      2265.7858      296.22547      2562.0112      1.5042052      1.5132425      1.7758341      5698.515     
    255000   1.5390638      2306.2872      345.26555      2651.5527      1.5209804      1.6686794      1.9312727      5723.3562    
    256000   1.4586515      2185.7893      401.27301      2587.0623      1.4539767      1.9433065      2.2006837      5631.0595    
    257000   1.4689846      2201.2735      393.62765      2594.9011      1.4813866      1.8245558      2.0869988      5691.8121    
    258000   1.4898986      2232.613       379.30216      2611.9152      1.5012288      1.8332549      2.1007002      5655.542     
    259000   1.4510574      2174.4095      351.16249      2525.572       1.4680716      1.7837187      2.0457548      5667.421     
    260000   1.5243494      2284.2376      331.6005       2615.8381      1.5319748      1.6930813      1.9647256      5667.6783    
    261000   1.440811       2159.0553      368.09894      2527.1542      1.4873324      1.7924024      2.0639952      5647.4504    
    262000   1.3749515      2060.3649      383.90503      2444.2699      1.4662185      1.8737482      2.1524811      5587.4083    
    263000   1.4810865      2219.4081      318.42553      2537.8336      1.5068531      1.5740584      1.8432182      5693.9921    
    264000   1.4828283      2222.0183      317.22595      2539.2442      1.4699728      1.6528458      1.9121673      5619.0099    
    265000   1.5080671      2259.8386      335.56294      2595.4015      1.4939904      1.6755113      1.9410617      5573.0585    
    266000   1.5768435      2362.9         345.19847      2708.0985      1.5319065      1.8013838      2.0665296      5608.2902    
    267000   1.5540839      2328.7947      326.92022      2655.7149      1.5152081      1.7766253      2.0394051      5618.2834    
    268000   1.4848231      2225.0074      374.27335      2599.2808      1.4733967      1.8462299      2.1064388      5618.4924    
    269000   1.4483436      2170.3429      370.28043      2540.6233      1.4698233      1.7678962      2.0300954      5687.5888    
    270000   1.5342197      2299.0283      329.43773      2628.466       1.5229234      1.6596416      1.9273311      5646.9827    
    271000   1.5320414      2295.7641      307.42021      2603.1843      1.5386533      1.6816562      1.9560457      5631.6251    
    272000   1.4271175      2138.5356      336.28113      2474.8168      1.4584056      1.7146438      1.9769437      5679.2341    
    273000   1.5967349      2392.7073      356.35028      2749.0576      1.5621414      1.8650105      2.1407009      5540.9362    
    274000   1.4843347      2224.2755      339.19196      2563.4674      1.4866717      1.6989518      1.9648012      5600.9381    
    275000   1.5216051      2280.1253      351.00417      2631.1295      1.5139564      1.8254922      2.0927372      5636.458     
    276000   1.5756584      2361.1241      318.84124      2679.9653      1.5284219      1.6579252      1.9229832      5588.333     
    277000   1.5413225      2309.6718      340.73095      2650.4028      1.5112394      1.6532411      1.9162203      5632.3333    
    278000   1.5574088      2333.7771      390.56809      2724.3452      1.5374811      1.8901112      2.1614547      5592.8132    
    279000   1.4828451      2222.0433      349.27266      2571.316       1.4765973      1.7800459      2.0436521      5577.8485    
    280000   1.5031035      2252.4005      379.48862      2631.8892      1.5051251      1.824337       2.0919487      5631.833     
    281000   1.4973691      2243.8076      354.3041       2598.1118      1.5187243      1.7483276      2.0201689      5665.2833    
    282000   1.4455631      2166.1763      427.32485      2593.5011      1.4502816      2.057349       2.3202962      5533.4125    
    283000   1.4875743      2229.1302      351.90018      2581.0303      1.4913392      1.8379495      2.1070793      5555.3125    
    284000   1.5410841      2309.3145      386.14773      2695.4623      1.4960981      1.9119475      2.1725509      5568.4506    
    285000   1.5400407      2307.7511      364.23588      2671.9869      1.469489       1.9159202      2.1673573      5564.0484    
    286000   1.5252334      2285.5622      354.23726      2639.7995      1.5001059      1.7769278      2.0410682      5584.1641    
    287000   1.4630783      2192.4228      388.1715       2580.5943      1.4752443      1.9434452      2.214853       5480.3091    
    288000   1.4725403      2206.6017      335.78829      2542.39        1.4563673      1.7271838      1.9861143      5562.1505    
    289000   1.4610826      2189.4323      334.51811      2523.9504      1.5167816      1.6996305      1.9823419      5561.9434    
    290000   1.4541042      2178.9751      387.53283      2566.5079      1.4683152      1.9009585      2.1653866      5606.4851    
    291000   1.4712556      2204.6765      417.76477      2622.4413      1.4826016      2.01781        2.2890436      5507.9325    
    292000   1.4502199      2173.1546      363.64397      2536.7985      1.4662956      1.7350522      1.9984218      5628.4227    
    293000   1.6104831      2413.3089      347.16755      2760.4764      1.5474765      1.8368223      2.1040172      5555.994     
    294000   1.578475       2365.3448      379.03866      2744.3834      1.5226078      1.891827       2.1563875      5544.2778    
    295000   1.5106495      2263.7082      340.97852      2604.6868      1.5135445      1.7800708      2.0542725      5530.3683    
    296000   1.5245051      2284.4709      400.83834      2685.3092      1.4814432      2.0374844      2.301097       5456.5831    
    297000   1.5114725      2264.9416      339.98051      2604.9221      1.5524187      1.7937288      2.0814431      5537.8679    
    298000   1.4836869      2223.3049      376.77276      2600.0776      1.5012992      1.8338374      2.1038967      5624.2982    
    299000   1.4783715      2215.3397      367.99724      2583.3369      1.5280574      1.8345732      2.1180381      5565.7453    
    300000   1.4292445      2141.7228      387.43074      2529.1536      1.4710127      1.9330582      2.2059563      5543.2393    
    301000   1.4246453      2134.831       368.7761       2503.6071      1.4577568      1.8723095      2.1440099      5487.0574    
    302000   1.50588        2256.5612      360.3001       2616.8613      1.5111377      1.8600383      2.1365035      5484.9234    
    303000   1.535909       2301.5597      421.12265      2722.6824      1.5115731      2.1563128      2.430136       5431.4658    
    304000   1.4613954      2189.901       357.90202      2547.803       1.4829317      1.8645988      2.1350961      5561.7794    
    305000   1.4480575      2169.9141      402.49309      2572.4072      1.4639447      2.0749995      2.3437716      5505.8391    
    306000   1.5025597      2251.5858      412.53785      2664.1236      1.4985223      1.9906689      2.263599       5475.7193    
    307000   1.5286947      2290.749       343.33767      2634.0867      1.5441571      1.8335577      2.1187588      5468.4374    
    308000   1.5208093      2278.9327      383.81906      2662.7518      1.489101       1.9434795      2.2136522      5394.4167    
    309000   1.4195279      2127.1625      432.71151      2559.874       1.4512726      1.9833411      2.2548082      5462.8542    
    310000   1.4758754      2211.5993      347.87603      2559.4753      1.5119419      1.8292325      2.1114532      5484.9705    
    311000   1.5229648      2282.1628      366.4323       2648.5951      1.5095492      1.8869568      2.1599176      5481.1788    
    312000   1.5288074      2290.9179      355.26442      2646.1823      1.4842351      1.8410232      2.1012256      5533.0274    
    313000   1.5037063      2253.304       401.49765      2654.8016      1.4994414      1.9562359      2.2310897      5439.9114    
    314000   1.4714704      2204.9984      347.32618      2552.3246      1.4610421      1.8024078      2.0638483      5548.5814    
    315000   1.5527168      2326.7461      316.34036      2643.0865      1.4971569      1.7829396      2.0462249      5475.6301    
    316000   1.4784751      2215.4949      425.12752      2640.6224      1.4841883      2.0344601      2.3093709      5419.5618    
    317000   1.4622645      2191.2033      327.98461      2519.1879      1.4656567      1.7950262      2.0619107      5504.4238    
    318000   1.4716764      2205.307       399.26581      2604.5728      1.5164531      2.0658387      2.3537684      5422.1043    
    319000   1.5769105      2363.0003      382.22687      2745.2272      1.5438224      1.9469944      2.2239083      5455.7292    
    320000   1.4561512      2182.0426      395.51713      2577.5598      1.4746045      2.0013434      2.2749846      5456.1947    
    321000   1.5415138      2309.9585      399.61865      2709.5771      1.5311744      2.0417715      2.320529       5455.8005    
    322000   1.4900729      2232.8742      373.71483      2606.589       1.4946556      1.8629999      2.1371315      5469.0294    
    323000   1.4489535      2171.2569      362.99993      2534.2568      1.476219       1.8888946      2.1655492      5434.42      
    324000   1.54162        2310.1176      357.01829      2667.1359      1.5392605      1.8565636      2.1371644      5477.1867    
    325000   1.530405       2293.3119      358.14475      2651.4567      1.49227        1.8528457      2.1198704      5445.8385    
    326000   1.5522072      2325.9824      459.72305      2785.7055      1.5017913      2.2076593      2.4771517      5385.7758    
    327000   1.5113285      2264.7258      385.009        2649.7348      1.4732515      2.0240711      2.290154       5393.8548    
    328000   1.5721948      2355.9338      352.26975      2708.2036      1.5454602      1.9152497      2.1951279      5426.4759    
    329000   1.5417321      2310.2856      324.35233      2634.6379      1.5307502      1.780112       2.0597704      5434.4142    
    330000   1.4705579      2203.631       403.73704      2607.3681      1.477113       1.9928385      2.2677951      5395.9858    
    331000   1.481663       2220.272       391.21389      2611.4859      1.4907505      2.0203791      2.2972806      5416.4714    
    332000   1.5498032      2322.3801      356.40058      2678.7807      1.5540468      1.8841759      2.1732836      5389.9851    
    333000   1.5109873      2264.2144      433.50026      2697.7147      1.4743463      2.1570994      2.4239893      5387.0226    
    334000   1.5196263      2277.1601      404.93279      2682.0929      1.4923608      2.0943976      2.3630133      5454.3447    
    335000   1.4468323      2168.0782      391.80894      2559.8871      1.4618444      1.859431       2.130107       5456.1227    
    336000   1.5360289      2301.7394      406.56092      2708.3003      1.5281248      2.0412083      2.3230214      5394.4562    
    337000   1.4975522      2244.0819      365.64595      2609.7279      1.5301825      1.90497        2.1935866      5414.7265    
    338000   1.5276246      2289.1454      342.46096      2631.6064      1.5426533      1.7939857      2.0778929      5486.537     
    339000   1.4836108      2223.1908      404.94072      2628.1315      1.5142696      2.0740167      2.3574867      5449.9522    
    340000   1.4456545      2166.3133      388.50109      2554.8144      1.5107405      2.1656173      2.4582947      5383.9533    
    341000   1.4670785      2198.4171      363.25574      2561.6728      1.4698514      1.9796025      2.2535904      5374.7687    
    342000   1.4714697      2204.9974      427.3336       2632.331       1.4690032      2.253146       2.5273185      5348.9667    
    343000   1.5131737      2267.4907      352.12003      2619.6108      1.5354587      1.8625629      2.1506863      5406.4375    
    344000   1.5107247      2263.821       401.60549      2665.4265      1.4972716      2.0532596      2.3307564      5347.2034    
    345000   1.5096315      2262.1828      360.15249      2622.3353      1.4953922      1.9049003      2.1786809      5410.05      
    346000   1.4181675      2125.1241      399.29573      2524.4198      1.4643301      2.0733666      2.3523461      5414.1848    
    347000   1.4993006      2246.702       393.12073      2639.8227      1.5085307      1.9233329      2.205504       5378.8334    
    348000   1.5760619      2361.7287      386.13002      2747.8587      1.5478932      2.0607031      2.3444771      5355.5047    
    349000   1.4235171      2133.1404      428.29393      2561.4343      1.4351951      2.1205826      2.3895831      5378.6577    
    350000   1.4885042      2230.5235      410.616        2641.1395      1.489174       2.094208       2.3718887      5365.3115    
    351000   1.5190509      2276.2977      376.93383      2653.2315      1.5086754      2.0092404      2.2872636      5389.1564    
    352000   1.4824049      2221.3837      400.82923      2622.213       1.511626       1.9436311      2.2322815      5338.0063    
    353000   1.4869887      2228.2525      390.50969      2618.7622      1.5227344      2.0300565      2.3204188      5367.2401    
    354000   1.4150757      2120.4909      398.59253      2519.0834      1.4475858      1.9888141      2.2655873      5347.5691    
    355000   1.5229307      2282.1117      443.3579       2725.4696      1.5146633      2.2910592      2.5736586      5330.5294    
    356000   1.5732162      2357.4645      361.52855      2718.993       1.536534       1.9481656      2.2280026      5359.8649    
    357000   1.5038061      2253.4534      385.17323      2638.6266      1.4883647      2.0513189      2.327925       5325.0403    
    358000   1.4994439      2246.9167      387.12564      2634.0423      1.4846076      2.0232794      2.2989062      5332.5222    
    359000   1.4874157      2228.8925      416.6149       2645.5074      1.500241       2.1499898      2.4335942      5335.0845    
    360000   1.4818476      2220.5486      363.88927      2584.4378      1.5056979      1.9297463      2.2170051      5324.5514    
    361000   1.4261945      2137.1525      427.28624      2564.4387      1.494973       2.1330691      2.4311386      5246.0339    
    362000   1.4731709      2207.5466      384.65117      2592.1978      1.4871349      1.9321697      2.2136447      5332.925     
    363000   1.4826205      2221.7068      434.26436      2655.9711      1.4712839      2.2665289      2.54459        5250.4947    
    364000   1.5043781      2254.3106      392.34483      2646.6554      1.4940284      2.0744809      2.3556127      5277.5577    
    365000   1.5222038      2281.0224      426.15305      2707.1754      1.5466243      2.1773688      2.4735138      5304.9035    
    366000   1.4943731      2239.3181      407.59344      2646.9116      1.5005904      2.0609578      2.3442687      5318.543     
    367000   1.4539862      2178.7983      407.20565      2586.004       1.4800538      2.1186089      2.403797       5281.0592    
    368000   1.4329662      2147.2998      387.18983      2534.4896      1.4630063      2.02386        2.3034014      5340.9483    
    369000   1.4737263      2208.3788      401.80924      2610.188       1.4959522      2.1195675      2.4042384      5333.0215    
    370000   1.4748948      2210.1298      376.28151      2586.4114      1.5239652      1.9754441      2.2716489      5310.4688    
    371000   1.4732302      2207.6355      456.25249      2663.888       1.4685485      2.4176732      2.6952038      5274.6322    
    372000   1.5268703      2288.0151      421.95811      2709.9733      1.4950737      2.1874243      2.4656449      5259.5274    
    373000   1.4494961      2172.0698      427.14285      2599.2127      1.4776872      2.0815197      2.3645705      5320.0694    
    374000   1.5177932      2274.4131      446.28407      2720.6972      1.4813053      2.30299        2.5795489      5224.3972    
    375000   1.4782159      2215.1065      403.84109      2618.9476      1.501259       2.1649324      2.4570167      5218.6276    
    376000   1.5444447      2314.3504      430.09976      2744.4502      1.539258       2.1210606      2.4121878      5269.4365    
    377000   1.5129437      2267.1461      434.43762      2701.5838      1.4872747      2.1603695      2.4349303      5323.5268    
    378000   1.5291955      2291.4994      441.25028      2732.7497      1.530229       2.2702752      2.560174       5282.0556    
    379000   1.4631742      2192.5665      443.07911      2635.6457      1.4828035      2.2811881      2.5629336      5332.52      
    380000   1.4919314      2235.6592      447.54612      2683.2053      1.5100385      2.335357       2.627476       5231.1828    
    381000   1.5348341      2299.9489      394.59938      2694.5483      1.5212621      2.0528386      2.3401476      5247.6734    
    382000   1.4763048      2212.2428      347.53782      2559.7806      1.5151734      1.9113333      2.2037658      5314.0577    
    383000   1.4844421      2224.4365      419.59063      2644.0271      1.4757257      2.1340849      2.4150268      5221.7837    
    384000   1.5148766      2270.0426      427.35415      2697.3968      1.5002921      2.3120196      2.5964864      5222.831     
    385000   1.5666081      2347.5622      409.72056      2757.2827      1.5228779      2.1793434      2.4608182      5255.146     
    386000   1.5159616      2271.6684      457.95703      2729.6254      1.467059       2.220273       2.4903722      5250.6824    
    387000   1.4550608      2180.4085      443.45297      2623.8615      1.4598293      2.2940756      2.5734327      5242.7278    
    388000   1.4706229      2203.7284      496.27725      2700.0057      1.4735225      2.3336482      2.6146005      5255.0526    
    389000   1.5273987      2288.8069      408.43809      2697.245       1.5183365      2.1803923      2.4698908      5213.4417    
    390000   1.5146397      2269.6876      408.89426      2678.5819      1.5035191      2.0685028      2.3505902      5290.593     
    391000   1.4655566      2196.1366      417.1011       2613.2377      1.4902374      2.1257278      2.4123808      5284.7645    
    392000   1.5589348      2336.0638      407.90067      2743.9645      1.5348458      2.1902272      2.4783307      5243.8824    
    393000   1.5400094      2307.7041      445.69277      2753.3969      1.4829465      2.3406242      2.6143526      5209.3264    
    394000   1.5474996      2318.9282      428.18143      2747.1097      1.5300318      2.2688013      2.559229       5208.1171    
    395000   1.5603094      2338.1236      442.87274      2780.9963      1.5301601      2.3194416      2.609262       5175.7596    
    396000   1.5895246      2381.9027      415.80701      2797.7097      1.5303505      2.2268418      2.5119905      5159.5388    
    397000   1.5197062      2277.2797      443.58966      2720.8694      1.4880896      2.2770508      2.5587347      5170.7066    
    398000   1.5373504      2303.7195      433.8334       2737.5529      1.4960874      2.3127537      2.593983       5173.2367    
    399000   1.4975645      2244.1004      372.17125      2616.2717      1.5062929      2.0994072      2.3905438      5203.7876    
    400000   1.4957442      2241.3726      438.79288      2680.1655      1.5149612      2.2221972      2.5185789      5176.2942    
    401000   1.4995153      2247.0236      412.48869      2659.5123      1.5225906      2.2756184      2.5722554      5210.5535    
    402000   1.5071867      2258.5193      440.76287      2699.2821      1.4815894      2.3155163      2.5965773      5180.4327    
    403000   1.4871687      2228.5223      448.18917      2676.7115      1.4647693      2.444717       2.7264761      5119.2379    
    404000   1.5373138      2303.6648      407.34704      2711.0118      1.518461       2.1710377      2.4575613      5233.8699    
    405000   1.5107703      2263.8893      426.41162      2690.3009      1.4772898      2.2876159      2.5662858      5181.1934    
    406000   1.4961208      2241.937       442.13145      2684.0685      1.4810822      2.3016193      2.5840618      5190.6444    
    407000   1.5176781      2274.2406      405.80035      2680.0409      1.5272143      2.179518       2.4735999      5225.5552    
    408000   1.4271992      2138.6579      436.37113      2575.0291      1.4590055      2.2790385      2.5657546      5199.4983    
    409000   1.4866033      2227.675       426.73522      2654.4102      1.5184945      2.3458302      2.6490289      5113.3259    
    410000   1.4894006      2231.8668      447.81276      2679.6796      1.4813884      2.3250356      2.6128838      5118.6156    
    411000   1.4515344      2175.1244      419.06608      2594.1904      1.4888762      2.2902811      2.5859754      5161.3458    
    412000   1.5451869      2315.4625      437.72106      2753.1836      1.5560186      2.3156048      2.6212177      5126.8753    
    413000   1.4549143      2180.1891      381.62686      2561.816       1.4987545      2.1308887      2.4318434      5125.5247    
    414000   1.4258717      2136.6688      442.35007      2579.0189      1.4645632      2.3320967      2.623623       5156.3658    
    415000   1.4962088      2242.0689      429.58755      2671.6565      1.5151907      2.2735575      2.5718234      5143.5768    
    416000   1.4765861      2212.6643      426.42474      2639.0891      1.521162       2.2791265      2.5814479      5178.903     
    417000   1.4414346      2159.9897      478.59243      2638.5821      1.4821722      2.4205431      2.7145435      5179.8213    
    418000   1.4928626      2237.0546      384.11404      2621.1686      1.5220691      2.0418424      2.3414913      5176.8807    
    419000   1.4946639      2239.7539      412.61704      2652.371       1.5089785      2.2265701      2.5219771      5156.5429    
    420000   1.4878621      2229.5614      486.31887      2715.8803      1.509134       2.5251631      2.8228076      5141.6514    
    421000   1.4058944      2106.7328      435.58172      2542.3145      1.4587555      2.2558771      2.548494       5165.6737    
    422000   1.4874485      2228.9416      427.54595      2656.4875      1.4789233      2.2746343      2.5587774      5174.8803    
    423000   1.4743265      2209.2782      414.95736      2624.2356      1.4909639      2.2805777      2.5723826      5166.4124    
    424000   1.4941998      2239.0584      464.20729      2703.2657      1.497215       2.384196       2.6768827      5125.7114    
    425000   1.4600435      2187.8752      431.23157      2619.1068      1.4678865      2.3102954      2.5996395      5100.2308    
    426000   1.4608085      2189.0216      482.601        2671.6226      1.5116609      2.3719308      2.6757416      5142.8791    
    427000   1.5675914      2349.0357      415.51139      2764.547       1.5776733      2.2570786      2.5639852      5173.3822    
    428000   1.4024128      2101.5155      484.18285      2585.6984      1.4066221      2.4983509      2.7744014      5110.7584    
    429000   1.455577       2181.1822      430.97576      2612.158       1.4560668      2.2788622      2.5625395      5134.5533    
    430000   1.5785486      2365.4551      403.31233      2768.7675      1.5453727      2.2503368      2.5456374      5120.985     
    431000   1.501267       2249.6486      460.77672      2710.4254      1.5061844      2.4222295      2.7147439      5165.8895    
    432000   1.4812504      2219.6537      468.42807      2688.0817      1.4613669      2.4174338      2.6992475      5115.0929    
    433000   1.5489603      2321.1171      425.01471      2746.1318      1.5211942      2.3060486      2.597641       5121.7237    
    434000   1.4676483      2199.271       450.21895      2649.4899      1.4760874      2.3763864      2.6652006      5140.0453    
    435000   1.5232948      2282.6572      445.51453      2728.1717      1.5352014      2.4612862      2.7664081      5070.4196    
    436000   1.5139569      2268.6645      421.39717      2690.0616      1.5155199      2.2916782      2.5898083      5088.655     
    437000   1.5311741      2294.4643      459.01402      2753.4783      1.5256992      2.5304314      2.8318391      5043.7667    
    438000   1.4268893      2138.1935      436.78463      2574.9782      1.4467522      2.2813597      2.5693262      5092.9377    
    439000   1.5156403      2271.1869      482.1384       2753.3253      1.4871921      2.5023351      2.7900288      5070.5735    
    440000   1.5386814      2305.7141      512.62766      2818.3418      1.5022816      2.512308       2.800893       5079.6753    
    441000   1.5140877      2268.8604      400.33221      2669.1926      1.5024802      2.1875433      2.4789869      5115.5159    
    442000   1.542546       2311.5052      400.98188      2712.4871      1.512145       2.2405702      2.5321794      5081.3695    
    443000   1.4585784      2185.6798      426.25837      2611.9381      1.4746646      2.2839207      2.5767183      5091.3482    
    444000   1.5016721      2250.2557      457.24852      2707.5042      1.4869631      2.4261554      2.7153638      5090.6858    
    445000   1.4595555      2187.1439      479.26941      2666.4133      1.495332       2.4264602      2.7247675      5132.5356    
    446000   1.4786547      2215.7641      467.05555      2682.8197      1.4602057      2.5103025      2.7944694      5073.6927    
    447000   1.5229676      2282.1669      460.59433      2742.7613      1.5369976      2.4651861      2.7718431      5057.8131    
    448000   1.419581       2127.2421      431.29734      2558.5394      1.4606459      2.3210625      2.6161122      5089.5492    
    449000   1.5321758      2295.9654      470.83567      2766.801       1.5498844      2.4210876      2.7268927      5126.0608    
    450000   1.4558434      2181.5814      465.1411       2646.7225      1.4734533      2.546182       2.8403943      5067.9244    
    451000   1.5830874      2372.2565      436.08963      2808.3461      1.5277315      2.3386713      2.6284986      5080.3733    
    452000   1.4995996      2247.15        494.02196      2741.1719      1.4863066      2.644668       2.9373723      5032.4742    
    453000   1.4867122      2227.8382      427.66902      2655.5073      1.4839544      2.3819044      2.6773358      5013.6819    
    454000   1.4773112      2213.7509      429.20921      2642.9601      1.480799       2.421745       2.7163799      5037.7051    
    455000   1.5003379      2248.2564      519.89868      2768.1551      1.5232394      2.6605436      2.9696112      5002.5235    
    456000   1.4730965      2207.4352      442.37762      2649.8128      1.4796217      2.3273167      2.6214299      5052.9537    
    457000   1.4689662      2201.2459      440.05006      2641.296       1.5111238      2.5005315      2.8132287      4967.2312    
    458000   1.4893007      2231.7172      500.78535      2732.5025      1.5102671      2.6097532      2.9150169      5016.0318    
    459000   1.5059071      2256.6018      467.87051      2724.4723      1.5137415      2.3744327      2.675667       5051.1104    
    460000   1.4888137      2230.9874      470.34362      2701.331       1.4486217      2.5174562      2.7962981      5051.142     
    461000   1.4982942      2245.1939      481.7616       2726.9555      1.4963316      2.5227772      2.8174491      5071.3039    
    462000   1.5040572      2253.8298      462.842        2716.6718      1.4626582      2.4597265      2.743203       5013.8215    
    463000   1.5146549      2269.7104      440.33452      2710.0449      1.4855513      2.3890127      2.6770202      5057.0787    
    464000   1.57196        2355.5821      463.73747      2819.3196      1.5151571      2.3730269      2.661072       5063.1332    
    465000   1.5482984      2320.1252      488.52975      2808.6549      1.5302654      2.4899957      2.7862637      5104.3334    
    466000   1.4513627      2174.8671      450.48818      2625.3553      1.4721311      2.4015625      2.6966598      5058.9374    
    467000   1.5653329      2345.6513      432.63104      2778.2824      1.5586052      2.4058406      2.7141633      5033.3112    
    468000   1.4634995      2193.0541      502.8997       2695.9538      1.477762       2.610249       2.9070211      5027.4613    
    469000   1.5293731      2291.7655      451.45213      2743.2177      1.5218582      2.47103        2.7729563      5015.6303    
    470000   1.4851777      2225.5389      440.97424      2666.5131      1.4542337      2.4097837      2.691714       5048.4845    
    471000   1.518463       2275.4168      463.64792      2739.0647      1.4831664      2.4688417      2.7578537      5009.8438    
    472000   1.5139546      2268.661       470.04141      2738.7024      1.5046059      2.5253707      2.8247281      4994.9222    
    473000   1.5142298      2269.0733      449.62917      2718.7025      1.5257646      2.468531       2.7759157      5001.1859    
    474000   1.4037533      2103.5243      481.20349      2584.7278      1.4578762      2.5381139      2.8420397      4974.717     
    475000   1.4810893      2219.4123      436.92294      2656.3352      1.4988611      2.309616       2.6107325      5036.6397    
    476000   1.55567        2331.1714      445.21441      2776.3858      1.5053375      2.4793856      2.7694662      5016.0378    
    477000   1.553864       2328.4653      475.35964      2803.8249      1.5236495      2.4790155      2.7792621      4974.1287    
    478000   1.4624691      2191.51        436.53639      2628.0464      1.4863646      2.3290569      2.6319589      4985.8903    
    479000   1.4829434      2222.1907      492.68698      2714.8776      1.4843044      2.507671       2.8036468      5019.5451    
    480000   1.544741       2314.7944      467.59973      2782.3941      1.5124329      2.6454718      2.9423533      4985.683     
    481000   1.4715699      2205.1475      495.24426      2700.3917      1.492036       2.6175124      2.9179968      5033.4772    
    482000   1.5541443      2328.8853      549.00399      2877.8893      1.4974296      2.8397194      3.1283055      4992.5188    
    483000   1.5125983      2266.6285      572.12834      2838.7569      1.455275       2.7820642      3.0625058      4985.0268    
    484000   1.541014       2309.2095      454.67647      2763.886       1.5227825      2.5029665      2.8048386      4984.1288    
    485000   1.5642033      2343.9586      488.38914      2832.3477      1.5077555      2.5671231      2.8594         4965.7153    
    486000   1.5712102      2354.4585      534.51591      2888.9744      1.5484736      2.801563       3.1093633      4956.9802    
    487000   1.4978647      2244.5503      511.6625       2756.2128      1.5125219      2.6832018      2.9910842      4960.2192    
    488000   1.4752775      2210.7033      443.35879      2654.0621      1.4710738      2.5636841      2.8595186      4958.4288    
    489000   1.3733493      2057.964       450.56124      2508.5252      1.4487704      2.3927329      2.6982933      4987.937     
    490000   1.4763853      2212.3633      506.85951      2719.2228      1.50826        2.5340649      2.8421259      4999.3432    
    491000   1.5578396      2334.4227      448.23961      2782.6623      1.5593755      2.425884       2.7372576      5012.9809    
    492000   1.4344149      2149.4707      474.20536      2623.6761      1.4763884      2.5285826      2.8359744      4939.3633    
    493000   1.467127       2198.4898      498.18208      2696.6719      1.4955886      2.6957687      3.0038742      4946.4285    
    494000   1.5078881      2259.5703      450.33497      2709.9053      1.5506588      2.4793403      2.8014445      4946.8062    
    495000   1.53248        2296.4213      444.20611      2740.6274      1.5166471      2.5014768      2.8004108      5020.6074    
    496000   1.467988       2199.78        504.87476      2704.6547      1.4814795      2.5878575      2.8907666      4935.3346    
    497000   1.444416       2164.4574      486.69226      2651.1497      1.4541421      2.5856997      2.8797831      4977.6987    
    498000   1.4710816      2204.4158      458.09568      2662.5115      1.481017       2.4406758      2.7390207      4997.3793    
    499000   1.5372083      2303.5066      470.1805       2773.6871      1.5434695      2.5878328      2.9046761      4891.1379    
    500000   1.5274197      2288.8384      467.24872      2756.0871      1.5010366      2.5085399      2.8075326      4932.1591    
    501000   1.4480344      2169.8796      494.89434      2664.7739      1.4681119      2.7240916      3.0257745      4932.8935    
    502000   1.5736502      2358.1149      515.30393      2873.4188      1.541723       2.7863615      3.0932244      4920.2017    
    503000   1.4656134      2196.2216      440.81763      2637.0392      1.4783658      2.5179198      2.8184731      4961.2008    
    504000   1.5635027      2342.9088      530.26822      2873.177       1.5408741      2.6985027      3.0048026      4956.8025    
    505000   1.4508248      2174.061       497.77439      2671.8354      1.500453       2.7422629      3.055756       4944.3879    
    506000   1.5197755      2277.3836      453.81138      2731.1949      1.4971442      2.4653667      2.7656433      4910.5897    
    507000   1.5593554      2336.6941      464.26929      2800.9634      1.5504468      2.5030816      2.8164242      4919.6856    
    508000   1.4650378      2195.3592      479.79251      2675.1517      1.4964656      2.6334531      2.9464943      4880.7056    
    509000   1.5139461      2268.6483      481.96107      2750.6094      1.4928519      2.6814997      2.9801472      4928.1465    
    510000   1.5378094      2304.4074      584.2881       2888.6955      1.5301426      2.8680409      3.1770996      4926.1941    
    511000   1.4683983      2200.3948      512.21409      2712.6089      1.4786818      2.5945526      2.8946259      4961.971     
    512000   1.5579052      2334.521       487.07037      2821.5914      1.5558045      2.6368621      2.9546329      4889.3918    
    513000   1.5315883      2295.085       533.69636      2828.7814      1.4880708      2.807838       3.1033829      4887.9088    
    514000   1.4683909      2200.3838      525.11733      2725.5011      1.4789542      2.889671       3.1930487      4909.744     
    515000   1.4637482      2193.4267      501.745        2695.1717      1.4774597      2.5982518      2.8998956      4943.4395    
    516000   1.5000161      2247.7742      471.61334      2719.3875      1.554625       2.5731619      2.900506       4915.8635    
    517000   1.5156139      2271.1474      482.48308      2753.6305      1.5029086      2.6832296      2.9880549      4888.7538    
    518000   1.4985994      2245.6512      454.73726      2700.3885      1.479364       2.5071834      2.8042257      4915.6214    
    519000   1.5108683      2264.0362      464.80998      2728.8462      1.4768044      2.6028471      2.895328       4932.8839    
    520000   1.5055083      2256.0041      513.07063      2769.0748      1.504495       2.7455049      3.051304       4916.5702    
    521000   1.4618255      2190.5454      527.0571       2717.6025      1.45119        2.6069283      2.8969347      4967.3562    
    522000   1.4488024      2171.0303      473.80189      2644.8322      1.4937603      2.6438325      2.9569937      4913.3578    
    523000   1.4732166      2207.6151      458.19952      2665.8146      1.4989348      2.5201698      2.8284018      4946.3624    
    524000   1.5635547      2342.9867      492.8226       2835.8093      1.542346       2.708015       3.015349       4949.5287    
    525000   1.5140641      2268.8251      533.1667       2801.9918      1.477344       2.7968142      3.0909441      4898.0415    
    526000   1.4934723      2237.9683      534.40324      2772.3715      1.4577859      2.8874528      3.179552       4868.6722    
    527000   1.4955849      2241.134       502.0819       2743.2159      1.5090929      2.6525355      2.9645799      4879.3936    
    528000   1.4850295      2225.3168      489.19255      2714.5093      1.4991872      2.6843605      2.9954565      4864.5136    
    529000   1.4518147      2175.5443      489.84207      2665.3864      1.4851117      2.6496973      2.9558186      4960.0456    
    530000   1.5465004      2317.4308      455.2775       2772.7083      1.5274698      2.5304958      2.8380761      4904.2755    
    531000   1.4978616      2244.5456      529.20299      2773.7486      1.5158862      2.8140615      3.127828       4888.6437    
    532000   1.4694811      2202.0174      477.28676      2679.3042      1.4677668      2.5908198      2.8866906      4955.0491    
    533000   1.4910792      2234.3822      508.44473      2742.8269      1.486608       2.6951775      2.9977959      4897.7247    
    534000   1.5312615      2294.5954      549.12586      2843.7213      1.4965113      2.8399643      3.1406747      4861.1421    
    535000   1.5933102      2387.5754      497.66708      2885.2425      1.5558946      2.8498589      3.1616565      4870.1981    
    536000   1.5130947      2267.3724      521.30868      2788.681       1.5161769      2.7173493      3.0291146      4873.0774    
    537000   1.4845816      2224.6455      473.32521      2697.9707      1.5112055      2.516838       2.8302642      4906.4271    
    538000   1.5345028      2299.4524      504.59134      2804.0438      1.5184059      2.7212863      3.0282271      4894.511     
    539000   1.5245486      2284.536       449.72849      2734.2645      1.4835489      2.5472563      2.840969       4911.5681    
    540000   1.5129056      2267.089       520.90174      2787.9907      1.4841356      2.8231327      3.1198022      4905.7782    
    541000   1.4992254      2246.5893      541.24115      2787.8305      1.4763626      2.9145619      3.2125656      4877.5337    
    542000   1.5008343      2249.0002      526.86801      2775.8682      1.5050102      2.8966217      3.2052993      4889.1865    
    543000   1.5522457      2326.0401      517.11877      2843.1589      1.5021504      2.7200296      3.0161671      4903.4823    
    544000   1.5181951      2275.0153      521.31745      2796.3328      1.4862064      2.7435001      3.0367306      4959.408     
    545000   1.5787107      2365.698       502.60003      2868.298       1.515628       2.7149714      3.0131662      4871.3397    
    546000   1.533636       2298.1535      483.40304      2781.5565      1.534367       2.6616237      2.9769904      4867.6582    
    547000   1.4295494      2142.1798      497.97119      2640.151       1.4630189      2.8051776      3.1146778      4835.0684    
    548000   1.4794348      2216.9331      491.33994      2708.273       1.5058614      2.7015905      3.0190407      4826.777     
    549000   1.4681787      2200.0658      508.01423      2708.08        1.4923133      2.63469        2.9459429      4871.9988    
    550000   1.516957       2273.16        538.43705      2811.597       1.4977903      2.898869       3.2059514      4815.1329    
    551000   1.5058991      2256.5898      494.63477      2751.2246      1.5097682      2.770304       3.0851242      4807.9294    
    552000   1.4871884      2228.5518      489.01558      2717.5674      1.4979389      2.7752926      3.0904272      4787.41      
    553000   1.4828382      2222.0331      548.36745      2770.4005      1.4954095      2.8965122      3.2078399      4843.6689    
    554000   1.5042344      2254.0953      491.53652      2745.6318      1.5046991      2.7990899      3.1115617      4816.9572    
    555000   1.5428691      2311.9893      537.38497      2849.3743      1.5214716      2.9842655      3.296972       4797.1351    
    556000   1.549342       2321.6889      546.39808      2868.087       1.5194353      3.0550006      3.3659383      4790.5377    
    557000   1.4949282      2240.1499      525.65657      2765.8065      1.5238928      2.7769048      3.096678       4856.0292    
    558000   1.5623264      2341.1461      570.21765      2911.3638      1.5375697      3.0591383      3.374429       4798.2327    
    559000   1.4507751      2173.9864      548.43993      2722.4264      1.4702175      2.8676014      3.1784684      4791.8891    
    560000   1.4874236      2228.9043      563.17671      2792.081       1.478813       2.9812234      3.2879833      4792.7092    
    561000   1.4385307      2155.6383      526.29544      2681.9337      1.4480749      2.8509519      3.1527877      4829.1481    
    562000   1.5146614      2269.7202      499.83597      2769.5562      1.5078938      2.8345957      3.1455268      4827.8637    
    563000   1.5928513      2386.8877      538.02533      2924.913       1.5392127      2.8909239      3.1963695      4863.8048    
    564000   1.4879075      2229.6293      586.41702      2816.0464      1.494644       3.0780529      3.3877611      4847.7055    
    565000   1.5137414      2268.3415      577.98434      2846.3258      1.5107101      2.9160697      3.223465       4904.6998    
    566000   1.5061464      2256.9603      534.06393      2791.0242      1.5191753      2.872665       3.1870585      4873.4822    
    567000   1.4478452      2169.5961      473.77621      2643.3723      1.4607558      2.702947       3.0068801      4848.6123    
    568000   1.5128047      2266.9379      494.32506      2761.2629      1.5042623      2.9004609      3.2142031      4767.3814    
    569000   1.4940336      2238.8093      569.9733       2808.7826      1.4975963      3.0334818      3.3449596      4819.4626    
    570000   1.4602353      2188.1627      510.84969      2699.0124      1.4857289      2.7798257      3.0926862      4830.2585    
    571000   1.5330262      2297.2398      518.02645      2815.2662      1.5631821      2.7315298      3.0594833      4858.3351    
    572000   1.4519566      2175.7569      529.08287      2704.8398      1.4933374      2.9542995      3.2758536      4772.6864    
    573000   1.4712593      2204.6821      536.61789      2741.3         1.4507102      2.9519607      3.248039       4830.417     
    574000   1.4668728      2198.1089      517.86167      2715.9706      1.4896305      2.7670235      3.0813667      4811.1909    
    575000   1.5173554      2273.7571      540.92832      2814.6854      1.4990915      2.9284428      3.2360329      4814.3483    
    576000   1.5125489      2266.5545      562.1185       2828.673       1.5093393      2.9326913      3.243263       4849.5505    
    577000   1.4400155      2157.8632      505.78962      2663.6529      1.4887843      2.9251829      3.2443313      4817.5214    
    578000   1.4472611      2168.7207      539.4468       2708.1675      1.4718453      3.0718647      3.3832965      4804.9211    
    579000   1.4894387      2231.9239      548.78444      2780.7084      1.4837957      2.8562731      3.1632518      4815.1825    
    580000   1.4173646      2123.9209      516.3297       2640.2506      1.4622728      2.8693355      3.1833981      4798.8398    
    581000   1.519119       2276.3998      579.48659      2855.8864      1.5194425      2.9715971      3.2870924      4817.0791    
    582000   1.4091958      2111.68        481.53603      2593.216       1.4676418      2.7065115      3.0225422      4828.7372    
[...]
   5259000   1.5176527      2274.2026      1383.1866      3657.3892      1.5207739      19.204159      19.814691      2496.0085    
   5260000   1.5130643      2267.3269      1446.7232      3714.0501      1.4995861      19.331202      19.926601      2496.0085    
   5261000   1.451568       2175.1746      1461.8819      3637.0565      1.494543       19.729899      20.345873      2496.0085    
   5262000   1.510785       2263.9113      1464.5472      3728.4585      1.4936591      19.622545      20.21411       2496.0085    
   5263000   1.52419        2283.9987      1418.6934      3702.6921      1.5089383      19.646329      20.244765      2496.0085    
   5264000   1.4616606      2190.2984      1454.0541      3644.3525      1.4971445      19.395055      20.009073      2496.0085    
   5265000   1.4804164      2218.4039      1446.8286      3665.2325      1.4995524      19.529083      20.137522      2496.0085    
   5266000   1.4693117      2201.7635      1439.5875      3641.351       1.5019659      18.896081      19.510897      2496.0085    
   5267000   1.4870702      2228.3748      1505.7811      3734.1559      1.4798912      20.136372      20.726402      2496.0085    
   5268000   1.5020544      2250.8285      1427.2265      3678.055       1.5060789      19.388262      19.993268      2496.0085    
   5269000   1.5333999      2297.7998      1473.559       3771.3588      1.4906223      19.899556      20.479637      2496.0085    
   5270000   1.4772131      2213.6038      1555.6515      3769.2553      1.4632543      20.600191      21.180842      2496.0085    
   5271000   1.530047       2292.7754      1449.2197      3741.9951      1.4987423      19.914934      20.50286       2496.0085    
   5272000   1.4833594      2222.814       1403.2006      3626.0146      1.5140864      19.163808      19.782709      2496.0085    
   5273000   1.4928992      2237.1094      1386.4739      3623.5833      1.5196585      19.231933      19.851478      2496.0085    
   5274000   1.4610691      2189.4121      1484.8         3674.2121      1.4868676      19.916163      20.522187      2496.0085    
   5275000   1.5395795      2307.0598      1420.5066      3727.5665      1.5083084      19.706291      20.298063      2496.0085    
   5276000   1.4829921      2222.2637      1469.1833      3691.4469      1.492069       19.498577      20.099992      2496.0085    
   5277000   1.5157099      2271.2913      1440.1281      3711.4194      1.5017613      19.490355      20.086437      2496.0085    
   5278000   1.5044178      2254.3701      1432.1143      3686.4844      1.5044413      19.377671      19.98042       2496.0085    
   5279000   1.506234       2257.0917      1443.5099      3700.6016      1.5006389      19.117544      19.71652       2496.0085    
   5280000   1.5046888      2254.7761      1464.7975      3719.5737      1.4935419      19.407012      20.000923      2496.0085    
   5281000   1.5111339      2264.4342      1511.2055      3775.6397      1.4780487      19.827809      20.406732      2496.0085    
   5282000   1.4954641      2240.9529      1484.1551      3725.108       1.4870647      19.947593      20.540009      2496.0085    
   5283000   1.5083374      2260.2436      1383.9053      3644.1489      1.5205163      18.708203      19.322257      2496.0085    
   5284000   1.465467       2196.0023      1495.8735      3691.8758      1.4831603      20.378821      20.980116      2496.0085    
   5285000   1.4834661      2222.974       1421.6153      3644.5893      1.5079112      19.073001      19.686914      2496.0085    
   5286000   1.510087       2262.8654      1518.2889      3781.1543      1.4756668      19.936712      20.514146      2496.0085    
   5287000   1.5205971      2278.6148      1483.8756      3762.4904      1.4871403      19.542125      20.124542      2496.0085    
   5288000   1.4990358      2246.3051      1456.8356      3703.1407      1.4961701      19.218592      19.81687       2496.0085    
   5289000   1.4157184      2121.454       1558.9418      3680.3959      1.4621206      20.238814      20.843169      2496.0085    
   5290000   1.4892654      2231.6642      1452.5462      3684.2104      1.4975947      18.834717      19.438047      2496.0085    
   5291000   1.5375557      2304.0272      1422.615       3726.6421      1.5075845      19.094464      19.686466      2496.0085    
   5292000   1.5294724      2291.9144      1399.9234      3691.8378      1.5151584      18.929972      19.531276      2496.0085    
   5293000   1.5180072      2274.7338      1403.1063      3677.84        1.5140979      19.135504      19.740547      2496.0085    
   5294000   1.4679961      2199.7921      1475.2144      3675.0065      1.4900655      19.619123      20.224935      2496.0085    
   5295000   1.5106275      2263.6754      1484.4185      3748.0939      1.486989       20.09224       20.678526      2496.0085    
   5296000   1.4430642      2162.4317      1476.1237      3638.5554      1.4897496      19.603131      20.218669      2496.0085    
   5297000   1.5263481      2287.2327      1467.0357      3754.2684      1.4927915      19.925775      20.510416      2496.0085    
   5298000   1.4578118      2184.531       1508.9017      3693.4327      1.4788167      20.28057       20.881449      2496.0085    
   5299000   1.4163794      2122.4446      1406.7975      3529.2421      1.5128652      18.743197      19.387929      2496.0085    
   5300000   1.490633       2233.7136      1462.5793      3696.2929      1.4942672      19.286763      19.886881      2496.0085    
   5301000   1.5299723      2292.6635      1434.4094      3727.0729      1.5036636      19.535587      20.127485      2496.0085    
   5302000   1.4901026      2232.9188      1489.1818      3722.1006      1.4853994      19.842124      20.435351      2496.0085    
   5303000   1.533358       2297.7369      1445.3573      3743.0942      1.5000168      19.728518      20.316139      2496.0085    
   5304000   1.5031608      2252.4864      1416.003       3668.4895      1.5098196      19.195254      19.802813      2496.0085    
   5305000   1.4850673      2225.3733      1445.8596      3671.2329      1.4998583      19.123139      19.729962      2496.0085    
   5306000   1.4658323      2196.5497      1485.4936      3682.0433      1.4866435      19.717507      20.321445      2496.0085    
   5307000   1.4423595      2161.3756      1498.7285      3660.1041      1.4822142      19.561448      20.171233      2496.0085    
   5308000   1.481639       2220.2361      1493.2531      3713.4891      1.4840388      19.864545      20.460071      2496.0085    
   5309000   1.4873997      2228.8685      1476.9611      3705.8296      1.4894716      19.892551      20.490121      2496.0085    
   5310000   1.5121885      2266.0144      1434.1762      3700.1907      1.5037374      18.831149      19.430223      2496.0085    
   5311000   1.4109835      2114.3587      1559.9379      3674.2966      1.4617828      20.37517       20.98115       2496.0085    
   5312000   1.4510966      2174.4682      1471.5818      3646.05        1.4912555      19.393875      20.007405      2496.0085    
   5313000   1.4584096      2185.4268      1447.1276      3632.5544      1.4994209      19.289003      19.906145      2496.0085    
   5314000   1.5341393      2298.9077      1436.8753      3735.783       1.5028333      19.461562      20.051127      2496.0085    
   5315000   1.493722       2238.3424      1452.4737      3690.8161      1.4976356      19.836411      20.43799       2496.0085    
   5316000   1.4239202      2133.7445      1540.9776      3674.7221      1.4681159      20.094053      20.699927      2496.0085    
   5317000   1.4867665      2227.9195      1510.4369      3738.3564      1.4782957      20.241174      20.830047      2496.0085    
   5318000   1.4875324      2229.0673      1478.2604      3707.3277      1.4890258      19.986771      20.583932      2496.0085    
   5319000   1.5503795      2323.2438      1430.8091      3754.0528      1.5048562      19.543722      20.128407      2496.0085    
   5320000   1.5269536      2288.14        1454.1705      3742.3105      1.4970584      20.216381      20.804196      2496.0085    
   5321000   1.4691058      2201.455       1470.0794      3671.5344      1.4917547      19.563042      20.169763      2496.0085    
   5322000   1.5274503      2288.8842      1452.0563      3740.9405      1.497772       18.919436      19.507624      2496.0085    
   5323000   1.4537024      2178.373       1474.2751      3652.6482      1.4903636      19.360671      19.972443      2496.0085    
   5324000   1.5064571      2257.426       1484.0218      3741.4478      1.4871074      19.542422      20.130471      2496.0085    
   5325000   1.5145085      2269.4911      1488.2517      3757.7428      1.4857004      19.742733      20.326434      2496.0085    
   5326000   1.488076       2229.8818      1431.3858      3661.2677      1.5046587      19.148274      19.757737      2496.0085    
   5327000   1.5055945      2256.1333      1527.4215      3783.5548      1.4726316      20.520217      21.097018      2496.0085    
   5328000   1.4963029      2242.2099      1493.843       3736.053       1.4838213      20.056096      20.645578      2496.0085    
   5329000   1.5409598      2309.1283      1456.8254      3765.9537      1.4961719      19.638684      20.220184      2496.0085    
   5330000   1.5007943      2248.9402      1429.16        3678.1002      1.5053855      19.338188      19.943143      2496.0085    
   5331000   1.4944845      2239.485       1491.8138      3731.2988      1.4844887      19.816428      20.407172      2496.0085    
   5332000   1.4900444      2232.8316      1450.9353      3683.7669      1.498129       19.291714      19.89516       2496.0085    
   5333000   1.499831       2247.4967      1469.5259      3717.0225      1.4919269      19.998202      20.592764      2496.0085    
   5334000   1.5348634      2299.9928      1376.8427      3676.8356      1.522858       18.794792      19.400104      2496.0085    
   5335000   1.529708       2292.2674      1387.9503      3680.2177      1.5191554      18.897976      19.502386      2496.0085    
   5336000   1.4336471      2148.3202      1471.3161      3619.6362      1.4913525      19.573329      20.19392       2496.0085    
   5337000   1.4957501      2241.3815      1485.9054      3727.287       1.4864965      19.922861      20.514707      2496.0085    
   5338000   1.5100126      2262.7539      1455.3098      3718.0637      1.4967002      19.30261       19.89692       2496.0085    
   5339000   1.4806739      2218.7898      1482.0327      3700.8225      1.4877982      19.708651      20.307573      2496.0085    
   5340000   1.4768478      2213.0565      1488.1105      3701.1669      1.4857698      20.088703      20.687533      2496.0085    
   5341000   1.4681059      2199.9566      1426.721       3626.6776      1.5062338      19.614207      20.232925      2496.0085    
   5342000   1.4798267      2217.5203      1494.1249      3711.6451      1.4837689      20.349185      20.94522       2496.0085    
   5343000   1.5018935      2250.5874      1434.8626      3685.4501      1.5035338      19.84356       20.446592      2496.0085    
   5344000   1.5322827      2296.1256      1430.7686      3726.8942      1.504895       19.523133      20.115092      2496.0085    
   5345000   1.5101454      2262.9528      1425.2282      3688.1811      1.5067465      19.361214      19.963516      2496.0085    
   5346000   1.4992501      2246.6263      1510.8842      3757.5106      1.4781776      20.246303      20.830085      2496.0085    
   5347000   1.5202381      2278.0768      1454.1999      3732.2767      1.4970865      19.551594      20.14212       2496.0085    
   5348000   1.510419       2263.3629      1485.1266      3748.4895      1.4867647      19.606499      20.192688      2496.0085    
   5349000   1.5082072      2260.0485      1478.2122      3738.2606      1.4890751      19.567334      20.156259      2496.0085    
   5350000   1.4786551      2215.7646      1493.6895      3709.4541      1.483921       20.09799       20.694616      2496.0085    
   5351000   1.493788       2238.4413      1430.0292      3668.4706      1.5051476      19.587677      20.195246      2496.0085    
   5352000   1.3875511      2079.2453      1521.8717      3601.117       1.4745096      20.004652      20.630203      2496.0085    
   5353000   1.4583698      2185.3672      1476.5295      3661.8967      1.489641       19.818967      20.428293      2496.0085    
   5354000   1.5055644      2256.0883      1410.6152      3666.7035      1.5116315      18.774475      19.382523      2496.0085    
   5355000   1.4569943      2183.306       1444.5621      3627.868       1.5002997      18.761091      19.379504      2496.0085    
   5356000   1.4464496      2167.5048      1474.8309      3642.3357      1.4902152      19.133837      19.748393      2496.0085    
   5357000   1.5199627      2277.664       1421.8951      3699.5591      1.5078608      19.054663      19.653929      2496.0085    
   5358000   1.4615049      2190.0651      1523.8973      3713.9624      1.4738329      19.851979      20.447389      2496.0085    
   5359000   1.5196985      2277.2682      1389.5063      3666.7745      1.5186652      19.190155      19.798179      2496.0085    
   5360000   1.4776901      2214.3187      1416.3229      3630.6416      1.5097223      19.214723      19.832399      2496.0085    
   5361000   1.4776038      2214.1892      1509.8653      3724.0545      1.4785323      20.289158      20.881888      2496.0085    
   5362000   1.5248018      2284.9155      1431.2605      3716.1759      1.5047484      19.674609      20.269445      2496.0085    
   5363000   1.4608154      2189.0319      1510.7222      3699.7541      1.4782437      19.627351      20.22657       2496.0085    
   5364000   1.4836269      2223.2149      1489.4178      3712.6327      1.4853452      19.80114       20.396916      2496.0085    
   5365000   1.5257474      2286.3325      1505.6854      3792.018       1.4799178      20.513024      21.087595      2496.0085    
   5366000   1.5012762      2249.6624      1527.1886      3776.851       1.4727448      19.876268      20.454889      2496.0085    
   5367000   1.5094895      2261.97        1400.9268      3662.8968      1.5148423      19.665634      20.274683      2496.0085    
   5368000   1.5432745      2312.5969      1444.4943      3757.0911      1.5003019      19.60379       20.187671      2496.0085    
   5369000   1.4721525      2206.0205      1473.3949      3679.4155      1.4906628      19.858104      20.462731      2496.0085    
   5370000   1.5497703      2322.3308      1431.1757      3753.5065      1.5047438      19.316666      19.901504      2496.0085    
   5371000   1.4763602      2212.3258      1500.4077      3712.7335      1.4816489      20.249892      20.845616      2496.0085    
   5372000   1.481043       2219.3429      1442.0388      3661.3817      1.5011099      19.723374      20.33281       2496.0085    
   5373000   1.494983       2240.232       1429.5862      3669.8182      1.5052686      19.460377      20.067564      2496.0085    
   5374000   1.4900525      2232.8436      1506.427       3739.2706      1.479644       20.404603      20.993241      2496.0085    
   5375000   1.5089572      2261.1723      1454.836       3716.0083      1.4968574      19.925805      20.520663      2496.0085    
   5376000   1.4992251      2246.5889      1435.1867      3681.7756      1.5034102      19.591003      20.195003      2496.0085    
   5377000   1.4772661      2213.6833      1476.5923      3690.2756      1.4896027      19.67089       20.272621      2496.0085    
   5378000   1.5144523      2269.4067      1444.4023      3713.8091      1.5003447      19.853208      20.448659      2496.0085    
   5379000   1.4742361      2209.1427      1462.9036      3672.0463      1.4941662      19.677053      20.283652      2496.0085    
   5380000   1.4871554      2228.5023      1450.212       3678.7143      1.4983957      19.252341      19.857157      2496.0085    
   5381000   1.4787058      2215.8406      1443.8095      3659.6501      1.5005356      19.517284      20.127195      2496.0085    
   5382000   1.5050288      2255.2857      1520.7734      3776.059       1.4748721      20.193353      20.772175      2496.0085    
   5383000   1.5795095      2366.895       1422.8185      3789.7135      1.5075442      19.187311      19.76249       2496.0085    
   5384000   1.5489992      2321.1753      1455.5565      3776.7318      1.4966114      19.789847      20.368481      2496.0085    
   5385000   1.5196322      2277.1688      1515.4811      3792.6499      1.4766334      20.523009      21.097398      2496.0085    
   5386000   1.5464105      2317.2962      1469.834       3787.1302      1.4918596      19.845171      20.421036      2496.0085    
   5387000   1.4497787      2172.4934      1481.8657      3654.359       1.4878535      19.575059      20.186391      2496.0085    
   5388000   1.4656041      2196.2077      1434.4442      3630.6519      1.5036647      19.566909      20.18457       2496.0085    
   5389000   1.4976411      2244.2152      1510.4923      3754.7075      1.4782974      20.039665      20.624188      2496.0085    
   5390000   1.4980625      2244.8466      1443.7827      3688.6293      1.5005587      19.080584      19.682767      2496.0085    
   5391000   1.5091381      2261.4434      1481.4227      3742.8661      1.488007       20.057158      20.644855      2496.0085    
   5392000   1.4709833      2204.2685      1511.0442      3715.3128      1.4781213      19.992487      20.587537      2496.0085    
   5393000   1.4774475      2213.9551      1451.3767      3665.3318      1.4980324      19.724907      20.333317      2496.0085    
   5394000   1.4572166      2183.6391      1486.8223      3670.4614      1.4861967      19.580832      20.18786       2496.0085    
   5395000   1.4899371      2232.6708      1424.3335      3657.0043      1.5070209      18.859329      19.469939      2496.0085    
   5396000   1.5208536      2278.9991      1463.5874      3742.5864      1.4939341      19.927997      20.515752      2496.0085    
   5397000   1.5134637      2267.9254      1414.0976      3682.0229      1.510436       19.170749      19.774678      2496.0085    
   5398000   1.4845937      2224.6637      1446.6245      3671.2882      1.4995929      19.608189      20.214989      2496.0085    
   5399000   1.485596       2226.1656      1509.8656      3736.0312      1.4785145      19.501761      20.091278      2496.0085    
   5400000   1.5292363      2291.5606      1443.9195      3735.4801      1.5005136      19.074452      19.664121      2496.0085    
Loop time of 3515.06 on 64 procs for 200000 steps with 1000 atoms

Performance: 491.599 tau/day, 56.898 timesteps/s, 56.898 katom-step/s
99.6% CPU use with 64 MPI tasks x 1 OpenMP threads

MPI task timing breakdown:
Section |  min time  |  avg time  |  max time  |%varavg| %total
---------------------------------------------------------------
Pair    | 2359.3     | 2748.4     | 3296.9     | 366.4 | 78.19
Neigh   | 0.00055742 | 0.00063864 | 0.00076654 |   0.0 |  0.00
Comm    | 217.13     | 764.72     | 1153.9     | 694.4 | 21.76
Output  | 0.063903   | 0.17067    | 0.32492    |  14.0 |  0.00
Modify  | 0.37019    | 0.42694    | 0.48277    |   4.0 |  0.01
Other   |            | 1.322      |            |       |  0.04

Nlocal:         15.625 ave          19 max          13 min
Histogram: 4 10 0 18 0 15 10 0 5 2
Nghost:        264.312 ave         273 max         255 min
Histogram: 1 5 5 11 3 14 8 9 6 2
Neighs:        231.719 ave         293 max         182 min
Histogram: 4 3 7 14 11 13 2 7 1 2

Total # of neighbors = 14830
Ave neighs/atom = 14.83
Neighbor list builds = 34
Dangerous builds = 0
Total wall time: 20:49:57
