LAMMPS data file for polygons
1 atoms
1 bodies
1 atom types
-1 1 xlo xhi
-1 1 ylo yhi
-1 1 zlo zhi

Atoms

1 1 1 1 0 0 0

Bodies

1 3 145
14 24 12
0.15749013123685918 0.15749013123685918 0.15749013123685915 0 0 0
-0.5612310241546865 -0.5612310241546865 0.0 
-0.5612310241546865 0.0 -0.3968502629920499 
-0.5612310241546865 0.0 0.3968502629920499 
-0.5612310241546865 0.5612310241546865 0.0 
0.0 -0.5612310241546865 -0.3968502629920499 
0.0 -0.5612310241546865 0.3968502629920499 
0.0 0.0 -0.7937005259840998 
0.0 0.0 0.7937005259840998 
0.0 0.5612310241546865 -0.3968502629920499 
0.0 0.5612310241546865 0.3968502629920499 
0.5612310241546865 -0.5612310241546865 0.0 
0.5612310241546865 0.0 -0.3968502629920499 
0.5612310241546865 0.0 0.3968502629920499 
0.5612310241546865 0.5612310241546865 0.0 
0 1 
0 2 
0 4 
0 5 
1 3 
1 6 
2 3 
2 7 
3 8 
3 9 
4 6 
4 10 
5 7 
5 10 
6 8 
6 11 
7 9 
7 12 
8 13 
9 13 
10 11 
10 12 
11 13 
12 13 
0 1 6 4 
0 4 10 5 
0 2 3 1 
0 5 7 2 
1 3 8 6 
4 6 11 10 
6 8 13 11 
2 7 9 3 
3 9 13 8 
5 10 12 7 
10 11 13 12 
7 12 13 9 
0.3
