LAMMPS (22 Jul 2025)
OMP_NUM_THREADS environment is not set. Defaulting to 1 thread.
  using 1 OpenMP thread(s) per MPI task
# 3d rounded 3d

variable    r     index 10
variable    steps index 100000

units       lj
dimension   3
newton on

neighbor     1.0 bin
neigh_modify every 100 delay 0 check yes

atom_style  body rounded/polyhedron 1 30

read_data   data.3d
Reading data file ...
  orthogonal box = (-1 -1 -1) to (1 1 1)
  4 by 4 by 4 MPI processor grid
  reading atoms ...
  1 atoms
  1 bodies
  read_data CPU = 0.009 seconds

replicate   $r $r $r
replicate   10 $r $r
replicate   10 10 $r
replicate   10 10 10
Replication is creating a 10x10x10 = 1000 times larger system...
  orthogonal box = (-1 -1 -1) to (19 19 19)
  4 by 4 by 4 MPI processor grid
  1000 atoms
  replicate CPU = 0.001 seconds

change_box all x final -10 10 y final -10 10 z final -10 10
Changing box ...
  orthogonal box = (-10 -1 -1) to (10 19 19)
  orthogonal box = (-10 -10 -1) to (10 10 19)
  orthogonal box = (-10 -10 -10) to (10 10 10)

velocity all create 3 1888 rot yes dist gaussian
set atom * quat/random 6741
Setting atom values ...
  1000 settings made for quat/random

variable cut_inner  equal 0.0
variable k_n        equal 500
variable k_na       equal 0
variable c_n        equal 0
variable c_t        equal 0
variable mu         equal 0
variable A_ua       equal 1

pair_style body/rounded/polyhedron ${c_n} ${c_t} ${mu} ${A_ua} ${cut_inner}
pair_style body/rounded/polyhedron 0 ${c_t} ${mu} ${A_ua} ${cut_inner}
pair_style body/rounded/polyhedron 0 0 ${mu} ${A_ua} ${cut_inner}
pair_style body/rounded/polyhedron 0 0 0 ${A_ua} ${cut_inner}
pair_style body/rounded/polyhedron 0 0 0 1 ${cut_inner}
pair_style body/rounded/polyhedron 0 0 0 1 0
pair_coeff * * ${k_n} ${k_na}
pair_coeff * * 500 ${k_na}
pair_coeff * * 500 0

comm_modify vel yes

timestep     0.0001

compute 1 all temp/body
compute 1p all pressure 1
fix          1 all npt/body temp 1.5 1.5 0.01 iso 1.0 20 0.1

thermo_style custom step temp ke pe etotal c_1 press c_1p vol

thermo       1000
thermo_modify norm no

compute 10 all property/atom x y z quatw quati quatj quatk
dump mydump all custom 1000 dump.quat id c_10[1] c_10[2] c_10[3] c_10[4] c_10[5] c_10[6] c_10[7]

run          5000000
Generated 0 of 0 mixed pair_coeff terms from geometric mixing rule
Neighbor list info ...
  update: every = 100 steps, delay = 0 steps, check = yes
  max neighbors/atom: 2000, page size: 100000
  master list distance cutoff = 2.5874011
  ghost atom cutoff = 2.5874011
  binsize = 1.2937005, bins = 16 16 16
  1 neighbor lists, perpetual/occasional/extra = 1 0 0
  (1) pair body/rounded/polyhedron, perpetual
      attributes: half, newton on
      pair build: half/bin/atomonly/newton
      stencil: half/bin/3d
      bin: standard
Per MPI rank memory allocation (min/avg/max) = 7.622 | 7.644 | 7.665 Mbytes
   Step          Temp          KinEng         PotEng         TotEng          c_1           Press           c_1p          Volume    
         0   3              4495.5         0              4495.5         1.4992496      0.374625       0.374625       8000         
      1000   2.4482534      3668.7078      144.78001      3813.4878      1.4904917      0.99881933     1.0773918      6792.2987    
      2000   2.2393756      3355.7043      135.433        3491.1373      1.5610319      0.89273584     1.0138265      7295.085     
      3000   1.9527933      2926.2608      136.95305      3063.2139      1.4579249      0.80796464     0.9370273      7465.7635    
      4000   1.9127853      2866.3088      145.24017      3011.549       1.5160483      0.81801195     0.96766952     7481.7994    
      5000   1.8718019      2804.8951      160.60819      2965.5033      1.5431462      0.88408177     1.0521166      7229.5692    
      6000   1.7684511      2650.024       129.69048      2779.7145      1.51203        0.78032762     0.9537206      7242.8852    
      7000   1.7095118      2561.7034      132.87481      2694.5782      1.4872707      0.8438828      1.0217818      7112.1934    
      8000   1.717337       2573.4295      107.29604      2680.7255      1.5426612      0.75632829     0.94675205     7184.818     
      9000   1.6424726      2461.2452      148.26879      2609.514       1.5019912      0.87929305     1.0709601      7104.2502    
     10000   1.5865052      2377.3781      110.15544      2487.5335      1.4770706      0.74449827     0.93809128     7065.0559    
     11000   1.6226819      2431.5889      153.36546      2584.9544      1.5352376      0.85133623     1.0549834      7109.7522    
     12000   1.5521417      2325.8844      127.15784      2453.0422      1.4963537      0.80765691     1.0081146      7186.6609    
     13000   1.5484397      2320.3369      131.79208      2452.1289      1.5102566      0.80522755     1.0137773      7058.8049    
     14000   1.5347202      2299.7782      146.0641       2445.8423      1.5072068      0.87566999     1.087423       6987.957     
     15000   1.487328       2228.7611      116.4584       2345.2195      1.4933908      0.74928869     0.96370131     6993.2796    
     16000   1.5469121      2318.0478      126.8837       2444.9315      1.5005657      0.86757534     1.0797693      6853.474     
     17000   1.567804       2349.3542      124.2539       2473.6081      1.5410052      0.79187451     1.0115668      6892.5193    
     18000   1.5013431      2249.7626      116.07553      2365.8381      1.475602       0.74673705     0.95777783     6870.1728    
     19000   1.5405917      2308.5766      147.6473       2456.224       1.5277719      0.93908727     1.1633655      6754.8453    
     20000   1.5403         2308.1396      109.73951      2417.8791      1.5037158      0.76047887     0.97388904     6874.8749    
     21000   1.5847353      2374.7258      118.59889      2493.3247      1.552494       0.78581828     1.0063505      6893.7079    
     22000   1.5386208      2305.6233      156.99752      2462.6208      1.4803366      0.89401855     1.1015579      6852.2447    
     23000   1.5947028      2389.6621      139.69845      2529.3605      1.5276629      0.93997392     1.1559016      6764.7201    
     24000   1.6069383      2407.997       129.81497      2537.812       1.5076547      0.83886229     1.0452798      6823.4064    
     25000   1.5223828      2281.2907      163.86349      2445.1542      1.4530396      0.90294149     1.1106676      6661.4926    
     26000   1.5120489      2265.8053      131.25058      2397.0559      1.5077574      0.88995446     1.1098814      6836.2249    
     27000   1.523938       2283.6211      119.81525      2403.4363      1.5341612      0.80556766     1.0323565      6809.7459    
     28000   1.4585309      2185.6086      127.29953      2312.9081      1.4798229      0.84850446     1.0695969      6789.4383    
     29000   1.4694702      2202.0011      180.24064      2382.2418      1.4927382      1.0619144      1.2877943      6711.4548    
     30000   1.4984663      2245.4517      133.21326      2378.665       1.5079156      0.89132416     1.1172379      6716.5249    
     31000   1.4322915      2146.2888      158.43101      2304.7198      1.4552728      0.89535705     1.1176226      6650.7442    
     32000   1.4643564      2194.338       169.33294      2363.6709      1.4580765      1.003105       1.2209615      6664.0318    
     33000   1.4735505      2208.1154      142.73437      2350.8498      1.5007875      0.90263179     1.1274055      6797.9346    
     34000   1.5104561      2263.4185      162.57867      2425.9971      1.5140087      0.98687425     1.2146959      6661.1666    
     35000   1.4954807      2240.9778      119.13097      2360.1088      1.4981818      0.76483843     0.98919509     6689.7065    
     36000   1.5134476      2267.9012      130.64947      2398.5507      1.4934327      0.84421531     1.0673129      6604.4528    
     37000   1.4879286      2229.661       146.10552      2375.7665      1.4641248      0.91419022     1.1321307      6608.8908    
     38000   1.5289528      2291.1357      159.79325      2450.929       1.4996822      1.0064616      1.2290313      6606.6525    
     39000   1.5271016      2288.3618      146.43237      2434.7941      1.4797743      0.95185033     1.1694213      6584.0313    
     40000   1.5719653      2355.5901      151.03264      2506.6227      1.5219567      0.94629484     1.1701972      6574.2848    
     41000   1.4251519      2135.5901      141.31927      2276.9093      1.4533819      0.85490784     1.0764716      6686.9425    
     42000   1.5510066      2324.1834      148.22983      2472.4132      1.5166055      0.97001657     1.1939587      6618.8462    
     43000   1.5444155      2314.3066      131.75046      2446.057       1.5169226      0.85295411     1.079985       6560.5916    
     44000   1.5186391      2275.6806      150.88849      2426.5691      1.4977614      0.97126674     1.1995079      6470.8076    
     45000   1.5130609      2267.3217      147.59889      2414.9206      1.4877221      0.95970313     1.183276       6541.0813    
     46000   1.5508203      2323.9042      156.03407      2479.9382      1.5046324      0.97670655     1.2021546      6469.2968    
     47000   1.5411813      2309.4602      146.65581      2456.116       1.5186598      0.89311827     1.1186313      6634.4753    
     48000   1.5060211      2256.7725      148.57654      2405.3491      1.4835136      0.8859138      1.1091097      6545.9482    
     49000   1.5609592      2339.0973      154.35643      2493.4537      1.5582867      0.92484632     1.1608349      6591.9156    
     50000   1.5224169      2281.3418      127.34886      2408.6907      1.5167592      0.89046033     1.118943       6613.662     
     51000   1.5473535      2318.7093      184.87013      2503.5794      1.5512481      1.037344       1.27408        6569.0852    
     52000   1.4919913      2235.7489      154.45142      2390.2003      1.4674452      0.98634787     1.208953       6481.9867    
     53000   1.4683963      2200.3919      123.68024      2324.0721      1.4889835      0.91559511     1.1438493      6613.4605    
     54000   1.4998596      2247.5396      165.90393      2413.4435      1.5029707      0.96712721     1.1973573      6541.6249    
     55000   1.5021059      2250.9057      143.30106      2394.2067      1.5040443      0.90958364     1.1403997      6524.5934    
     56000   1.4544266      2179.4582      179.49559      2358.9538      1.466932       1.122761       1.3533414      6416.0926    
     57000   1.5937564      2388.244       133.79452      2522.0385      1.5492769      0.92895413     1.1630089      6429.4423    
     58000   1.5290704      2291.312       157.2342       2448.5462      1.5052259      1.0271095      1.2581772      6411.1309    
     59000   1.4695338      2202.0965      149.45507      2351.5515      1.4811798      0.93214102     1.1623554      6484.4517    
     60000   1.4519129      2175.6915      148.69555      2324.387       1.455848       0.95195973     1.1765587      6499.4934    
     61000   1.5218061      2280.4265      202.91223      2483.3387      1.5107085      1.2043992      1.4366367      6457.2754    
     62000   1.5052252      2255.58        148.01282      2403.5928      1.5050723      0.96362801     1.1979776      6421.6855    
     63000   1.5063139      2257.2114      150.41847      2407.6299      1.5060904      0.99519048     1.2295024      6426.7633    
     64000   1.5051383      2255.4498      149.96666      2405.4164      1.5035234      0.92835023     1.1603455      6473.883     
     65000   1.463872       2193.6121      184.17461      2377.7868      1.4582537      1.0677909      1.2955462      6378.0779    
     66000   1.5578198      2334.3929      172.26707      2506.66        1.5371636      1.0791507      1.317223       6370.031     
     67000   1.4514748      2175.0351      176.38437      2351.4194      1.5137197      1.1032748      1.347034       6464.9961    
     68000   1.5101246      2262.9217      164.81505      2427.7368      1.5043964      1.0383851      1.2736355      6370.5474    
     69000   1.4837079      2223.3363      153.02805      2376.3644      1.4507061      0.99784279     1.2197994      6387.4533    
     70000   1.5087001      2260.787       185.71657      2446.5036      1.4751283      1.19355        1.422755       6289.5206    
     71000   1.5039169      2253.6195      177.02374      2430.6433      1.4763747      1.0536254      1.2810369      6371.0943    
     72000   1.5205651      2278.5668      168.98592      2447.5527      1.5276499      1.0772385      1.3215001      6283.13      
     73000   1.477354       2213.815       208.68418      2422.4992      1.5159073      1.1602815      1.4067648      6306.3969    
     74000   1.448035       2169.8804      182.3831       2352.2635      1.4361532      1.1152935      1.3404187      6326.6273    
     75000   1.5018216      2250.4797      183.05383      2433.5336      1.5237733      1.0971495      1.3422653      6306.0114    
     76000   1.4673251      2198.7867      134.53459      2333.3212      1.4767197      0.90076966     1.1338136      6376.9311    
     77000   1.5295001      2291.9559      148.89286      2440.8487      1.4936296      1.0232995      1.251385       6391.4425    
     78000   1.5309913      2294.1904      176.76546      2470.9559      1.5032014      1.0986539      1.3316822      6331.5875    
     79000   1.628523       2440.3417      158.30932      2598.651       1.5925779      1.024861       1.2696218      6359.9598    
     80000   1.5281808      2289.979       161.23582      2451.2148      1.5183373      1.0225023      1.2574935      6419.404     
     81000   1.5117224      2265.3161      201.38571      2466.7018      1.5177262      1.2164197      1.4585412      6293.2202    
     82000   1.5364556      2302.3787      166.87885      2469.2576      1.4968291      1.1122141      1.3458939      6236.0631    
     83000   1.5344641      2299.3945      182.23794      2481.6324      1.5127781      1.0943011      1.3299083      6328.8105    
     84000   1.4993228      2246.7352      192.46267      2439.1979      1.4751116      1.153839       1.3872963      6214.9457    
     85000   1.5022757      2251.1601      166.97335      2418.1334      1.4854513      1.057187       1.2942801      6194.3773    
     86000   1.5098253      2262.4733      166.95901      2429.4323      1.483798       1.1156739      1.352285       6161.1512    
     87000   1.5255147      2285.9837      162.59991      2448.5836      1.5196707      1.0980881      1.3406187      6241.8226    
     88000   1.5290701      2291.3115      163.47082      2454.7823      1.5010867      1.0364684      1.2703129      6299.6199    
     89000   1.4923454      2236.2796      157.95455      2394.2341      1.4990998      1.0613861      1.3036375      6216.051     
     90000   1.5131789      2267.4986      209.31826      2476.8169      1.5398075      1.2293775      1.4794364      6264.1621    
     91000   1.4877166      2229.3433      157.68977      2387.0331      1.5009544      1.0047373      1.244521       6314.7689    
     92000   1.4800212      2217.8117      171.45599      2389.2677      1.4395418      1.0846241      1.3104662      6195.0495    
     93000   1.5318381      2295.4595      146.06319      2441.5226      1.5213173      0.99196907     1.2329546      6269.2842    
     94000   1.5116681      2265.2346      161.97973      2427.2144      1.5192481      1.0657505      1.3108899      6228.376     
     95000   1.4742222      2209.122       195.44262      2404.5646      1.4877991      1.2035223      1.4464392      6180.5596    
     96000   1.4695048      2202.053       194.29205      2396.345       1.4573668      1.2013571      1.4355132      6172.1259    
     97000   1.5014769      2249.9631      158.45127      2408.4144      1.5174215      1.1202254      1.3661155      6235.9177    
     98000   1.4528289      2177.0642      161.56773      2338.6319      1.4802315      1.0920771      1.336343       6171.9886    
     99000   1.5313228      2294.6872      202.91529      2497.6025      1.5383117      1.2450474      1.4973621      6124.4687    
    100000   1.4788377      2216.0383      223.49464      2439.533       1.4863538      1.2796185      1.5242548      6106.4607    
    101000   1.4908943      2234.1051      188.7655       2422.8706      1.4707231      1.2302907      1.4665499      6139.7499    
    102000   1.5534579      2327.8567      173.18855      2501.0452      1.516051       1.1661303      1.4086895      6096.1675    
    103000   1.5617923      2340.3457      159.86506      2500.2108      1.5057455      1.070131       1.3059148      6148.662     
    104000   1.5393894      2306.775       194.18658      2500.9616      1.5095776      1.2185629      1.4612751      6096.9128    
    105000   1.5151087      2270.3904      170.97251      2441.3629      1.4762704      1.1734984      1.4102507      6071.6246    
    106000   1.5083266      2260.2274      198.97969      2459.2071      1.499351       1.2489947      1.4959102      6036.008     
    107000   1.5022004      2251.0474      144.52738      2395.5747      1.5057941      1.0846907      1.3376812      5966.1692    
    108000   1.5244516      2284.3907      147.52655      2431.9173      1.4866091      1.1335373      1.3743551      6016.1865    
    109000   1.4494367      2171.9809      211.39592      2383.3768      1.48767        1.391556       1.6494793      5915.9629    
    110000   1.4859678      2226.7227      175.9901       2402.7128      1.5160276      1.175386       1.4306298      6057.179     
    111000   1.4548177      2180.0443      209.619        2389.6633      1.4513857      1.2735047      1.51631        5963.4478    
    112000   1.4327373      2146.9568      180.61109      2327.5679      1.4744561      1.1497836      1.4018387      6015.0869    
    113000   1.448567       2170.6776      154.8039       2325.4815      1.5054389      1.0512931      1.3067799      6114.8127    
    114000   1.5459397      2316.5906      193.98195      2510.5726      1.5421668      1.2143567      1.4663641      6104.574     
    115000   1.5012298      2249.5928      193.31167      2442.9045      1.4980786      1.2419982      1.4882365      6071.0735    
    116000   1.4392479      2156.713       179.9991       2336.7121      1.4679867      1.1476782      1.3950169      6051.2034    
    117000   1.457611       2184.2301      190.9113       2375.1414      1.5246113      1.2140179      1.4769899      6052.1433    
    118000   1.4692158      2201.6199      163.61717      2365.2371      1.5316459      1.0464656      1.3084148      6085.2001    
    119000   1.4563404      2182.3261      193.67192      2375.998       1.5050501      1.2017096      1.4562163      6104.7932    
    120000   1.4962311      2242.1023      199.03664      2441.139       1.5192278      1.1634135      1.4185284      6045.1238    
    121000   1.5266817      2287.7325      157.80392      2445.5364      1.5023852      1.1235008      1.369233       6015.1382    
    122000   1.5777472      2364.2541      204.15459      2568.4087      1.5877774      1.2863426      1.5499517      6061.2382    
    123000   1.5335688      2298.0528      204.14427      2502.1971      1.4719637      1.2123905      1.4484833      5974.0068    
    124000   1.5752607      2360.5282      185.61736      2546.1455      1.5582132      1.2469997      1.5079523      5905.9873    
    125000   1.5206052      2278.6269      188.55195      2467.1789      1.5015139      1.280662       1.5300598      5944.0837    
    126000   1.537013       2303.2139      202.18903      2505.4029      1.5162541      1.2871812      1.5411091      5889.5292    
    127000   1.5408435      2308.954       212.16967      2521.1237      1.5146939      1.3385729      1.5880806      5966.0305    
    128000   1.4868748      2228.0819      168.91782      2396.9997      1.4755169      1.1315039      1.3765542      5974.98      
    129000   1.602868       2401.8977      174.66075      2576.5584      1.5654173      1.164076       1.4196271      5979.2497    
    130000   1.4524488      2176.4945      179.91398      2356.4085      1.4458036      1.1585199      1.4012157      5929.9124    
    131000   1.4579665      2184.7628      172.85816      2357.621       1.5109065      1.2446258      1.5070583      5958.8408    
    132000   1.4769203      2213.1651      165.54436      2378.7095      1.534485       1.2107808      1.4808624      5894.4846    
    133000   1.4718702      2205.5975      181.57781      2387.1753      1.484581       1.2590297      1.511686       5926.149     
    134000   1.4695955      2202.1889      183.56726      2385.7561      1.4768233      1.2105246      1.4594585      5961.5969    
    135000   1.4344377      2149.5049      187.27729      2336.7822      1.4541908      1.24669        1.4944529      5948.928     
    136000   1.5212741      2279.6292      149.87579      2429.505       1.5150313      1.0662511      1.3173112      6009.6933    
    137000   1.4806583      2218.7664      183.05229      2401.8187      1.4980974      1.1599906      1.4121597      6009.9307    
    138000   1.524662       2284.7061      215.6954       2500.4015      1.5047612      1.3004518      1.5485084      5986.0561    
    139000   1.4989524      2246.1802      155.28462      2401.4648      1.4914083      1.1227601      1.3726921      5937.1009    
    140000   1.4973173      2243.7299      176.91865      2420.6486      1.486042       1.2166075      1.4658544      5916.9363    
    141000   1.4714436      2204.9582      191.03367      2395.9919      1.4904328      1.275767       1.5294718      5949.4461    
    142000   1.4830682      2222.3777      221.71017      2444.0879      1.5129747      1.3914542      1.6545973      5863.1634    
    143000   1.4600506      2187.8858      194.58542      2382.4712      1.4889483      1.3419181      1.5984428      5916.8459    
    144000   1.469523       2202.0802      210.62521      2412.7054      1.4926781      1.367103       1.6250174      5877.1841    
    145000   1.4860323      2226.8195      225.39705      2452.2165      1.4990835      1.3959439      1.6561385      5811.5037    
    146000   1.494964       2240.2035      194.30675      2434.5103      1.479759       1.2857278      1.5359497      5853.0809    
    147000   1.5949851      2390.0851      167.15497      2557.2401      1.5515554      1.1990249      1.4559409      5870.2816    
    148000   1.5109809      2264.2049      243.13129      2507.3362      1.5103054      1.4707041      1.7253516      5928.3163    
    149000   1.5499421      2322.5883      196.12316      2518.7114      1.4954928      1.3061473      1.5527293      5844.2947    
    150000   1.5186815      2275.7443      191.02785      2466.7721      1.4863368      1.3677967      1.6150503      5880.7003    
    151000   1.5565326      2332.4641      225.33345      2557.7975      1.5013271      1.3828808      1.6289076      5878.1279    
    152000   1.5547043      2329.7244      216.53043      2546.2549      1.5008574      1.3702276      1.6169125      5866.0424    
    153000   1.5028822      2252.0689      210.58296      2462.6519      1.4949107      1.3381611      1.5915116      5869.1291    
    154000   1.5285496      2290.5316      215.64471      2506.1763      1.4939926      1.3927364      1.6401858      5898.0569    
    155000   1.5690032      2351.1512      203.436        2554.5872      1.5455905      1.3489472      1.6093207      5846.2207    
    156000   1.5279262      2289.5975      182.24405      2471.8415      1.5196598      1.2815174      1.5401683      5843.405     
    157000   1.4199383      2127.7775      200.09308      2327.8706      1.4466275      1.3230207      1.576195       5819.2716    
    158000   1.4716004      2205.1932      190.80935      2396.0026      1.4802122      1.2926879      1.5499927      5786.1933    
    159000   1.573907       2358.4996      177.63005      2536.1297      1.5178658      1.2571193      1.5066859      5857.6791    
    160000   1.521909       2280.5806      221.38765      2501.9683      1.5361456      1.3687939      1.6364327      5792.7619    
    161000   1.4975271      2244.0443      191.57155      2435.6159      1.482577       1.3533293      1.6134736      5641.6451    
    162000   1.5535463      2327.9891      199.35104      2527.3401      1.5610348      1.3200326      1.5945391      5713.9472    
    163000   1.5190404      2276.282       212.67838      2488.9604      1.5313413      1.340591       1.6072726      5788.2896    
    164000   1.4620506      2190.8829      205.41976      2396.3026      1.5040882      1.3253225      1.593391       5767.4953    
    165000   1.4810543      2219.3599      192.49147      2411.8514      1.481803       1.4096228      1.6696362      5701.8267    
    166000   1.4482738      2170.2384      239.43101      2409.6694      1.4905397      1.5088932      1.7797301      5659.3599    
    167000   1.484189       2224.0571      192.66304      2416.7202      1.5023193      1.3362802      1.602333       5714.7716    
    168000   1.4821626      2221.0206      227.51079      2448.5314      1.4951768      1.3795076      1.6444586      5692.2911    
    169000   1.477685       2214.311       224.14459      2438.4556      1.5121927      1.5307571      1.801259       5717.7642    
    170000   1.5298253      2292.4432      198.80893      2491.2521      1.495222       1.3638234      1.6200335      5700.9993    
    171000   1.5119461      2265.6513      185.12682      2450.7781      1.5028057      1.378267       1.6398982      5709.0827    
    172000   1.5091118      2261.4041      256.23384      2517.6379      1.4956179      1.6051349      1.8667475      5665.3885    
    173000   1.4847992      2224.9716      238.68664      2463.6582      1.4653048      1.5322533      1.7853832      5711.8091    
    174000   1.5229815      2282.1877      209.34732      2491.535       1.4905361      1.3764563      1.6330164      5683.3599    
    175000   1.5237566      2283.3492      223.50282      2506.852       1.5039963      1.5031193      1.7687539      5587.5861    
    176000   1.4955095      2241.021       225.59394      2466.615       1.4762639      1.4948538      1.7507094      5694.7672    
    177000   1.5761353      2361.8388      208.62484      2570.4636      1.5432619      1.4079993      1.6724174      5712.2457    
    178000   1.5358383      2301.4537      190.74777      2492.2015      1.5169044      1.2854983      1.5447783      5777.496     
    179000   1.485714       2226.3425      198.929        2425.2715      1.4352022      1.2718679      1.5132044      5737.801     
    180000   1.5957611      2391.248       194.23276      2585.4808      1.53183        1.3733878      1.6340741      5631.145     
    181000   1.5887357      2380.7204      208.17467      2588.8951      1.5430736      1.5091625      1.7748727      5635.6791    
    182000   1.502882       2252.0686      229.95604      2482.0247      1.4718751      1.509031       1.7662892      5600.9849    
    183000   1.5114978      2264.9794      172.88804      2437.8675      1.4814006      1.3386643      1.6008481      5535.5571    
    184000   1.5198334      2277.4703      249.6888       2527.1591      1.5129013      1.5406745      1.8072618      5649.0921    
    185000   1.4790033      2216.2865      221.6967       2437.9832      1.5048136      1.4022817      1.6702797      5711.2282    
    186000   1.474535       2209.5907      226.90804      2436.4987      1.4846579      1.4765859      1.740322       5667.6759    
    187000   1.4683014      2200.2496      210.12186      2410.3714      1.482871       1.4637682      1.7333193      5555.2584    
    188000   1.462764       2191.9518      229.24688      2421.1987      1.4680677      1.5762239      1.8421763      5539.9617    
    189000   1.5100498      2262.8097      202.12822      2464.9379      1.5122453      1.3257878      1.5968114      5587.8478    
    190000   1.5785674      2365.4832      190.90381      2556.387       1.5368333      1.3216079      1.5856076      5663.4192    
    191000   1.536639       2302.6536      212.69879      2515.3524      1.5090022      1.3568297      1.6164978      5704.9481    
    192000   1.5441845      2313.9605      192.60161      2506.5621      1.5309787      1.3427361      1.6103537      5671.4737    
    193000   1.4933451      2237.7776      225.63402      2463.4116      1.4770851      1.5246072      1.7847254      5616.0668    
    194000   1.5901145      2382.7866      224.71619      2607.5028      1.5305536      1.4802592      1.7412723      5635.9322    
    195000   1.5170466      2273.2943      223.28533      2496.5796      1.4939635      1.4385941      1.6973453      5684.6238    
    196000   1.5150366      2270.2824      227.67378      2497.9561      1.5047667      1.567852       1.8331938      5632.3862    
    197000   1.5108257      2263.9723      209.34443      2473.3168      1.5045203      1.388049       1.6528237      5658.4758    
    198000   1.4151725      2120.636       225.29226      2345.9283      1.4347654      1.5579717      1.8195574      5559.7024    
    199000   1.5184415      2275.3845      212.19808      2487.5826      1.5041963      1.4322064      1.6978631      5608.612     
    200000   1.4338151      2148.5719      227.49239      2376.0643      1.4563737      1.4840528      1.7489352      5583.2693    
    201000   1.4753186      2210.7649      208.10317      2418.8681      1.5198697      1.4265076      1.7063545      5590.1159    
    202000   1.5618345      2340.409       210.41676      2550.8258      1.5636232      1.5228394      1.8104515      5442.7807    
    203000   1.4257622      2136.5047      209.01198      2345.5167      1.4854058      1.4517984      1.7328552      5497.0736    
    204000   1.4393757      2156.9045      209.59924      2366.5038      1.4622115      1.4650627      1.7353061      5495.1381    
    205000   1.4666779      2197.8168      277.74164      2475.5584      1.5029407      1.747912       2.0260397      5534.0297    
    206000   1.4858167      2226.4963      206.52425      2433.0206      1.5240925      1.4247452      1.7067913      5539.2705    
    207000   1.5026783      2251.7635      254.80625      2506.5697      1.5017217      1.6521415      1.9237251      5525.9814    
    208000   1.4507647      2173.9709      194.61935      2368.5902      1.4603195      1.377454       1.6400993      5596.3856    
    209000   1.4721504      2206.0174      224.07499      2430.0924      1.5008887      1.5310867      1.8067649      5548.4918    
    210000   1.5698084      2352.3579      230.23806      2582.5959      1.5276975      1.5211094      1.7905383      5513.9921    
    211000   1.56927        2351.5512      195.16362      2546.7148      1.5270898      1.4286039      1.6966049      5540.8442    
    212000   1.4767414      2212.897       222.08477      2434.9818      1.4682386      1.370612       1.6308968      5608.2597    
    213000   1.5000165      2247.7748      246.35619      2494.131       1.5085242      1.6580435      1.9345437      5486.5177    
    214000   1.4578642      2184.6095      209.64214      2394.2517      1.4977768      1.5323338      1.811675       5504.5567    
    215000   1.4482667      2170.2276      223.90592      2394.1335      1.4981466      1.5339252      1.8164418      5479.2413    
    216000   1.4965476      2242.5765      206.77509      2449.3516      1.5037363      1.4473826      1.723083       5480.2889    
    217000   1.5095032      2261.9906      208.62599      2470.6166      1.4778447      1.490579       1.7516983      5538.5332    
    218000   1.5298412      2292.4671      205.95484      2498.4219      1.4979817      1.4940168      1.7613555      5484.2561    
    219000   1.4908751      2234.0764      270.24796      2504.3244      1.522425       1.7858553      2.0738854      5395.0723    
    220000   1.4280807      2139.9789      208.87439      2348.8533      1.4571564      1.4264832      1.695131       5532.1624    
    221000   1.5326254      2296.6391      257.99411      2554.6332      1.5560623      1.714826       2.0046842      5449.1328    
    222000   1.4165597      2122.7148      221.45749      2344.1723      1.4615651      1.5482563      1.8261382      5421.4581    
    223000   1.4968391      2243.0134      204.7409       2447.7543      1.5306096      1.4510013      1.7369326      5471.0563    
    224000   1.5229182      2282.0929      240.88007      2522.973       1.5009787      1.6687954      1.9412683      5428.2861    
    225000   1.5005445      2248.566       256.62265      2505.1886      1.5029218      1.7263708      1.9999891      5501.4469    
    226000   1.489937       2232.6705      244.78237      2477.4529      1.5098452      1.6067729      1.887976       5439.9603    
    227000   1.5180367      2274.7779      250.51381      2525.2917      1.512978       1.705482       1.9880813      5335.9105    
    228000   1.5301569      2292.9401      223.25329      2516.1933      1.500068       1.5478171      1.8191356      5418.02      
    229000   1.5417079      2310.2493      210.09568      2520.345       1.5273785      1.4084141      1.6832251      5505.8345    
    230000   1.5562861      2332.0947      235.58011      2567.6748      1.5433561      1.6127062      1.8923287      5473.2321    
    231000   1.51474        2269.8379      235.96121      2505.7991      1.5025245      1.6560394      1.9311929      5416.3261    
    232000   1.4930329      2237.3097      245.63866      2482.9484      1.5272441      1.6576724      1.9438625      5455.8876    
    233000   1.4626279      2191.748       205.47879      2397.2268      1.4923186      1.5514028      1.8327193      5410.2038    
    234000   1.4559696      2181.7705      218.09341      2399.8639      1.4959484      1.50257        1.7833552      5469.9711    
    235000   1.5732176      2357.4665      238.46724      2595.9337      1.5393793      1.646309       1.92286        5444.1132    
    236000   1.5201831      2277.9943      265.28057      2543.2749      1.5012512      1.7520275      2.02393        5451.7258    
    237000   1.4811839      2219.554       233.02055      2452.5746      1.5044383      1.5983043      1.8748533      5524.0449    
    238000   1.4854064      2225.8814      211.35865      2437.2401      1.5244387      1.3802907      1.6626947      5536.1541    
    239000   1.5418034      2310.3924      239.84175      2550.2342      1.511562       1.6894312      1.9619513      5435.7479    
    240000   1.5139205      2268.6099      301.02839      2569.6383      1.4813905      1.862297       2.1313696      5384.767     
    241000   1.5648342      2344.9041      234.94456      2579.8486      1.5211408      1.5954816      1.8676059      5429.4711    
    242000   1.5054259      2255.8806      252.42104      2508.3017      1.4828342      1.7139407      1.9857099      5373.1825    
    243000   1.4695358      2202.0994      247.29651      2449.3959      1.4598739      1.6738243      1.9460194      5327.8756    
    244000   1.5801284      2367.8225      243.31448      2611.1369      1.5416389      1.6795438      1.9600313      5359.1986    
    245000   1.5095878      2262.1173      256.512        2518.6293      1.4820929      1.8146433      2.0887322      5307.1317    
    246000   1.4993719      2246.8087      230.48263      2477.2914      1.4920993      1.6357464      1.9124863      5365.4493    
    247000   1.4561955      2182.109       292.27059      2474.3796      1.486023       1.7873985      2.0672756      5416.0217    
    248000   1.4516311      2175.2691      266.13178      2441.4009      1.5025911      1.6838807      1.9697639      5434.037     
    249000   1.4985368      2245.5574      247.75453      2493.312       1.4947716      1.7354577      2.0122045      5387.633     
    250000   1.5527137      2326.7415      233.63158      2560.3731      1.535705       1.7418437      2.0272872      5320.5393    
    251000   1.4811333      2219.4783      236.63177      2456.1101      1.5048438      1.6549745      1.9398018      5366.5163    
    252000   1.5264096      2287.3247      255.98597      2543.3107      1.5327359      1.7502183      2.0369012      5368.4954    
    253000   1.521197       2279.5137      233.50107      2513.0148      1.4854627      1.658169       1.9299317      5334.6687    
    254000   1.4672578      2198.6858      272.08923      2470.7751      1.4703997      1.8150997      2.0894797      5370.4294    
    255000   1.5190693      2276.3253      211.01045      2487.3358      1.5167177      1.4406484      1.7188207      5443.9948    
    256000   1.5102868      2263.1648      249.5995       2512.7643      1.4930255      1.7586425      2.0379461      5283.7898    
    257000   1.5007062      2248.8083      211.01339      2459.8217      1.4957918      1.5711254      1.848943       5366.4056    
    258000   1.5023688      2251.2996      267.78431      2519.0839      1.4959472      1.7618171      2.0417198      5321.6063    
    259000   1.5491579      2321.4131      288.48125      2609.8943      1.5499034      1.8813364      2.174266       5293.5866    
    260000   1.4980951      2244.8955      265.03334      2509.9289      1.497341       1.7234136      2.0029495      5353.8296    
    261000   1.4820231      2220.8117      239.41732      2460.229       1.5046792      1.6496853      1.9334233      5382.8261    
    262000   1.513811       2268.4458      246.75737      2515.2031      1.4966535      1.6849122      1.9614271      5350.5741    
    263000   1.5274121      2288.8271      289.56742      2578.3945      1.534429       1.8599425      2.1519572      5278.635     
    264000   1.4765675      2212.6364      241.49704      2454.1335      1.4893284      1.6847592      1.96842        5295.3263    
    265000   1.530578       2293.5712      252.81464      2546.3858      1.5012528      1.7737351      2.0530276      5270.3056    
    266000   1.5250455      2285.2807      207.48209      2492.7628      1.5025821      1.5727752      1.8518757      5303.2543    
    267000   1.4793678      2216.8326      226.4194       2443.252       1.4659464      1.6959196      1.9705797      5288.4962    
    268000   1.5026872      2251.7767      250.21307      2501.9898      1.496321       1.7526287      2.0349547      5277.4487    
    269000   1.595078       2390.2244      252.9157       2643.1401      1.5716728      1.8719552      2.166863       5250.0855    
    270000   1.4983369      2245.2578      278.62948      2523.8873      1.4856786      1.8840606      2.1648068      5246.8498    
    271000   1.5026165      2251.6708      216.89108      2468.5619      1.4776535      1.5489751      1.8216871      5326.9214    
    272000   1.4970425      2243.3181      255.69492      2499.0131      1.5059867      1.7354876      2.0218047      5291.0637    
    273000   1.4974065      2243.8636      303.74507      2547.6087      1.4832482      1.918809       2.1965567      5289.3458    
    274000   1.5143807      2269.2995      256.03152      2525.331       1.5023632      1.7208835      2.000109       5337.4697    
    275000   1.4937193      2238.3384      274.78837      2513.1268      1.5120999      1.925911       2.2148978      5295.9588    
    276000   1.487109       2228.4328      230.54856      2458.9814      1.4986131      1.6350805      1.9204416      5291.9099    
    277000   1.5187066      2275.7818      255.76985      2531.5517      1.5250215      1.8389526      2.1322949      5220.2838    
    278000   1.4669071      2198.1603      280.58251      2478.7428      1.4844996      1.8199224      2.1041379      5284.9857    
    279000   1.4902841      2233.1907      270.09311      2503.2839      1.5009393      1.8229232      2.1075446      5310.8576    
    280000   1.5113381      2264.7401      225.36135      2490.1014      1.5291532      1.6645456      1.9564761      5299.0372    
    281000   1.481914       2220.6481      247.61422      2468.2623      1.5387672      1.6962594      1.9967065      5310.6309    
    282000   1.5513205      2324.6538      276.86051      2601.5143      1.5150598      1.8281003      2.1084048      5275.8181    
    283000   1.5487639      2320.8227      227.19964      2548.0224      1.4908612      1.7493881      2.0206418      5282.9388    
    284000   1.5545623      2329.5116      243.7603       2573.2719      1.5330339      1.7625446      2.0489315      5277.9191    
    285000   1.5065135      2257.5105      263.88066      2521.3911      1.4902597      1.639046       1.9151352      5338.9338    
    286000   1.5400034      2307.6952      264.88696      2572.5821      1.4932339      1.879221       2.1556671      5232.5265    
    287000   1.5370368      2303.2496      285.05237      2588.3019      1.5237512      2.0169357      2.306785       5211.2568    
    288000   1.5077549      2259.3706      235.63217      2495.0028      1.4846408      1.7366096      2.0147973      5253.8261    
    289000   1.5231898      2282.4999      246.58054      2529.0804      1.4945407      1.7201986      1.9985384      5266.657     
    290000   1.4932861      2237.6892      253.23544      2490.9247      1.5155884      1.7222351      2.0157401      5239.6669    
    291000   1.4675946      2199.1905      270.88371      2470.0742      1.4509268      1.8793145      2.1574418      5156.9045    
    292000   1.4837179      2223.3512      238.86547      2462.2167      1.5025668      1.7400305      2.0318697      5213.1334    
    293000   1.501741       2250.3589      265.33687      2515.6957      1.4868848      1.8566911      2.1403555      5189.3842    
    294000   1.4602893      2188.2435      241.46603      2429.7096      1.4869574      1.6912573      1.9811793      5220.7115    
    295000   1.5110462      2264.3027      269.58949      2533.8922      1.5349503      1.8632223      2.1640004      5182.6602    
    296000   1.4611672      2189.559       265.61309      2455.1721      1.4949141      1.8449568      2.1414439      5155.7967    
    297000   1.4515007      2175.0738      230.27554      2405.3493      1.4605098      1.63637        1.9178114      5221.3701    
    298000   1.4367271      2152.9356      249.7505       2402.6861      1.459884       1.7728588      2.0600451      5163.9563    
    299000   1.449786       2172.5044      238.9412       2411.4456      1.5101797      1.6869928      1.9883181      5212.0191    
    300000   1.530019       2292.7334      275.1779       2567.9113      1.5421484      1.8700783      2.1721737      5144.9503    
    301000   1.4515093      2175.0867      299.64151      2474.7282      1.490473       1.9966489      2.2924032      5171.1768    
    302000   1.5450859      2315.3112      244.8144       2560.1256      1.5096848      1.7533689      2.037528       5188.3576    
    303000   1.4470377      2168.386       243.34729      2411.7333      1.4849774      1.8128179      2.1041399      5227.4772    
    304000   1.4885369      2230.5726      276.26679      2506.8393      1.4768791      1.9386288      2.2213647      5182.3374    
    305000   1.5429143      2312.0571      284.60103      2596.6581      1.558077       1.9085007      2.2134167      5159.5346    
    306000   1.4743126      2209.2575      243.60565      2452.8631      1.5044177      1.7490827      2.0427985      5224.4132    
    307000   1.4931903      2237.5457      239.54342      2477.0891      1.500409       1.787037       2.0775972      5188.6689    
    308000   1.5115144      2265.0044      252.38564      2517.39        1.4716097      1.8709146      2.1459818      5205.0744    
    309000   1.6300053      2442.5629      270.73256      2713.2954      1.6076557      1.8645446      2.1728924      5141.3638    
    310000   1.4774508      2213.9601      268.35281      2482.3129      1.4913413      1.8859419      2.177721       5158.759     
    311000   1.5000716      2247.8573      283.57129      2531.4286      1.4737609      1.8949947      2.1771902      5129.3405    
    312000   1.5194834      2276.9459      268.30404      2545.2499      1.4811813      1.9823179      2.2646059      5111.5088    
    313000   1.537334       2303.6949      287.01063      2590.7056      1.5100275      2.0449874      2.337228       5073.7247    
    314000   1.5276445      2289.1754      200.64895      2489.8243      1.5046768      1.6221457      1.9095827      5154.9805    
    315000   1.5353785      2300.7647      237.38955      2538.1542      1.5182513      1.7766548      2.0681833      5149.2093    
    316000   1.4901981      2233.0619      248.58162      2481.6435      1.4839391      1.7995069      2.087245       5135.5264    
    317000   1.5037289      2253.3377      278.33736      2531.675       1.5016907      1.9435732      2.2345265      5154.2801    
    318000   1.473728       2208.3814      257.24349      2465.6249      1.4647573      1.8690126      2.1535718      5115.9678    
    319000   1.4514785      2175.0406      272.5006       2447.5412      1.4872484      1.9338305      2.2318297      5110.6932    
    320000   1.4743307      2209.2845      281.47826      2490.7628      1.5079149      1.9493724      2.248935       5145.7217    
    321000   1.5038952      2253.5869      294.93817      2548.5251      1.5320098      1.9952603      2.3022232      5082.3601    
    322000   1.4523113      2176.2885      247.21744      2423.506       1.4672633      1.7694676      2.0592449      5114.9642    
    323000   1.5058239      2256.4771      244.99212      2501.4692      1.5235564      1.8276264      2.1278377      5133.9555    
    324000   1.5008033      2248.9537      261.71971      2510.6734      1.4880565      1.8931776      2.1832945      5085.2686    
    325000   1.505483       2255.9663      262.72711      2518.6934      1.5035589      1.9445386      2.2417784      5051.9377    
    326000   1.5457909      2316.3676      273.17421      2589.5418      1.5387714      1.9487801      2.2487592      5106.2186    
    327000   1.4568686      2183.1176      281.97815      2465.0957      1.5091564      1.9656028      2.2704719      5121.5167    
    328000   1.4215208      2130.1489      278.88148      2409.0304      1.4753237      1.8447059      2.1389014      5197.4725    
    329000   1.5663725      2347.2092      274.01944      2621.2286      1.558261       1.8841274      2.1882166      5097.7064    
    330000   1.5059138      2256.6119      293.05746      2549.6693      1.489011       2.0298567      2.3199413      5074.8142    
    331000   1.4420636      2160.9322      302.3616       2463.2938      1.4642083      2.0092806      2.3033616      5054.155     
    332000   1.4978385      2244.5111      280.83781      2525.3489      1.508768       1.9661472      2.2643101      5096.8324    
    333000   1.523963       2283.6585      287.63478      2571.2933      1.4906309      1.9878222      2.2735867      5099.767     
    334000   1.4769383      2213.1921      307.31037      2520.5024      1.4481676      2.0529571      2.3311901      5101.5723    
    335000   1.5698789      2352.4635      322.99758      2675.4611      1.5134702      2.0912194      2.3783915      5074.0225    
    336000   1.4760514      2211.8631      287.96491      2499.828       1.4515833      1.9463771      2.2236389      5147.2631    
    337000   1.4413227      2159.8221      313.81427      2473.6364      1.465799       1.9979981      2.2856633      5180.5044    
    338000   1.5527967      2326.8659      275.32625      2602.1922      1.5319642      1.9848163      2.2799384      5120.4309    
    339000   1.4744061      2209.3976      271.18361      2480.5812      1.4819925      1.8913948      2.185069       5072.1906    
    340000   1.4947199      2239.8377      304.26151      2544.0992      1.5133358      2.0724499      2.3754667      5055.6043    
    341000   1.5183212      2275.2043      299.04775      2574.2521      1.5076603      2.129959       2.4220484      5125.1779    
    342000   1.478187       2215.0632      256.13063      2471.1938      1.4832168      1.8672796      2.1586387      5107.9288    
    343000   1.4908963      2234.1081      257.49724      2491.6054      1.5148734      1.9665048      2.2732036      5017.3872    
    344000   1.4501716      2173.0822      311.93913      2485.0213      1.4954638      2.1722526      2.4786549      5028.3905    
    345000   1.4942882      2239.1909      307.48587      2546.6768      1.5099228      2.1354744      2.4395996      5016.1644    
    346000   1.4497537      2172.456       289.21272      2461.6687      1.4645559      2.0088492      2.301435       5056.1006    
    347000   1.4873944      2228.8605      275.26884      2504.1294      1.506224       1.9842805      2.2847544      5075.4313    
    348000   1.4173925      2123.9627      294.09521      2418.0579      1.4679782      2.0354776      2.3374552      5028.5624    
    349000   1.4899321      2232.6633      269.84065      2502.5039      1.4961899      2.0032975      2.3031254      5011.0134    
    350000   1.4674349      2198.9512      315.71726      2514.6684      1.4951386      2.1281507      2.4291963      5058.4192    
    351000   1.4530551      2177.403       253.18344      2430.5865      1.4939351      1.9468028      2.2495516      5069.4633    
    352000   1.531534       2295.0036      279.57911      2574.5828      1.5414309      1.9524575      2.2599846      5044.4929    
    353000   1.5092156      2261.5596      305.2378       2566.7974      1.5007916      2.0128976      2.3064951      5083.0683    
    354000   1.6117761      2415.2466      273.10403      2688.3506      1.5611531      1.99233        2.2938495      5009.8937    
    355000   1.5482286      2320.0205      328.66437      2648.6849      1.4928528      2.2920244      2.5795404      4999.8342    
    356000   1.5555215      2330.9489      295.3771       2626.326       1.5476096      2.0771506      2.3816575      5056.3884    
    357000   1.5433551      2312.7177      346.99155      2659.7092      1.4972105      2.3180615      2.6069135      5023.722     
    358000   1.5213736      2279.7783      364.5339       2644.3122      1.4773907      2.4542924      2.7392287      5030.7793    
    359000   1.54101        2309.2034      350.48832      2659.6917      1.5468172      2.4168893      2.7270262      5006.236     
    360000   1.5100769      2262.8503      297.04597      2559.8962      1.4802456      2.0328884      2.327072       4930.4047    
    361000   1.508258       2260.1247      279.27143      2539.3961      1.5053755      2.0343564      2.3332718      5026.4924    
    362000   1.5144561      2269.4125      307.16387      2576.5763      1.5392824      2.0912236      2.4006697      5054.4626    
    363000   1.4791521      2216.5095      275.26459      2491.7741      1.4823896      1.9962903      2.291683       5029.3174    
    364000   1.4872611      2228.6607      301.37346      2530.0342      1.4806594      2.1426933      2.4379237      4992.928     
    365000   1.5280236      2289.7433      247.01427      2536.7576      1.5670647      1.8989361      2.2172484      5045.5694    
    366000   1.5513093      2324.6369      268.23504      2592.872       1.5233871      1.9851049      2.2832979      5015.1841    
    367000   1.575375       2360.6995      253.08098      2613.7804      1.5254818      1.9400114      2.2346987      5007.4707    
    368000   1.57369        2358.1745      280.00973      2638.1843      1.5471799      2.025268       2.3288334      5009.4512    
    369000   1.5107228      2263.8182      338.96739      2602.7856      1.489801       2.2749717      2.570196       4975.5383    
    370000   1.5145009      2269.4796      250.08133      2519.5609      1.5181138      1.8923614      2.1952181      5024.5646    
    371000   1.458619       2185.7405      295.54415      2481.2847      1.4939412      2.0795208      2.387783       4960.8033    
    372000   1.5039653      2253.6919      277.34282      2531.0347      1.4815545      2.0044799      2.2964911      4996.9522    
    373000   1.4762661      2212.1847      258.62737      2470.8121      1.5265104      1.9232744      2.2384738      5002.2444    
    374000   1.4098691      2112.6888      282.71366      2395.4025      1.4533498      2.0322915      2.3341682      4958.2726    
    375000   1.5247331      2284.8126      275.03678      2559.8494      1.5374468      2.0697669      2.3822964      4960.0054    
    376000   1.4703605      2203.3352      301.17529      2504.5105      1.4898419      2.1876168      2.4937314      4930.5194    
    377000   1.4884235      2230.4026      272.10183      2502.5044      1.4948961      2.0723523      2.3775843      4918.7577    
    378000   1.5479111      2319.5448      292.25242      2611.7972      1.5446817      2.2106455      2.5258444      4890.4208    
    379000   1.502719       2251.8245      259.41451      2511.239       1.4974693      1.9085014      2.2103502      4943.6158    
    380000   1.3987349      2096.0043      323.14622      2419.1505      1.4579198      2.199776       2.5063644      4948.1512    
    381000   1.4023595      2101.4357      313.25148      2414.6872      1.4732657      2.1773289      2.4897152      4942.9226    
    382000   1.4820931      2220.9166      333.23434      2554.1509      1.5176088      2.3416287      2.659597       4884.4139    
    383000   1.4035224      2103.1783      287.90175      2391.08        1.4560884      2.1076987      2.4129657      4941.9087    
    384000   1.4392184      2156.6687      309.9605       2466.6292      1.5029661      2.2738377      2.5917717      4927.5943    
    385000   1.46477        2194.9579      266.7904       2461.7483      1.4957924      2.0143719      2.3234928      4939.1145    
    386000   1.4570055      2183.3228      276.84962      2460.1724      1.4612405      2.044961       2.3400552      4966.113     
    387000   1.4925518      2236.5889      301.8559       2538.4448      1.4812199      2.2066466      2.5044144      4936.394     
    388000   1.4636679      2193.3063      306.01876      2499.3251      1.4692872      2.2360444      2.5327774      4970.465     
    389000   1.5449547      2315.1146      311.60946      2626.7241      1.5364648      2.2282259      2.535796       4967.9184    
    390000   1.5143344      2269.2302      345.86922      2615.0994      1.4583527      2.3858796      2.6714861      4910.3466    
    391000   1.5587622      2335.8051      321.16689      2656.972       1.5440725      2.2991798      2.6094741      4928.861     
    392000   1.4855591      2226.1103      322.76294      2548.8732      1.4905803      2.3569844      2.6621765      4900.51      
    393000   1.4895757      2232.1292      284.6592       2516.7884      1.5284066      2.1001741      2.416204       4959.0195    
    394000   1.471036       2204.3475      317.28113      2521.6286      1.4788927      2.1858458      2.4858926      4955.0318    
    395000   1.4861966      2227.0657      242.23113      2469.2968      1.5068646      1.9366527      2.2483062      4901.3147    
    396000   1.4589112      2186.1784      276.49623      2462.6746      1.4692716      1.982074       2.2804488      4958.9373    
    397000   1.5641677      2343.9053      265.55172      2609.457       1.5400272      2.1336808      2.4461848      4850.8526    
    398000   1.4368881      2153.1767      327.21416      2480.3909      1.4546381      2.2652441      2.5677596      4867.091     
    399000   1.4765294      2212.5793      289.84316      2502.4225      1.4989489      2.1208923      2.4327712      4878.0026    
    400000   1.5692608      2351.5373      283.48308      2635.0204      1.5336983      2.1075638      2.4124691      4913.5623    
    401000   1.4913418      2234.7756      321.32411      2556.0997      1.4674375      2.188785       2.482105       4921.4409    
    402000   1.4594073      2186.9219      306.75547      2493.6773      1.4759621      2.1420793      2.4472964      4889.9644    
    403000   1.5055258      2256.0304      277.0056       2533.036       1.5099701      2.0461288      2.3550461      4902.3143    
    404000   1.5207208      2278.8002      302.69568      2581.4959      1.5204283      2.1921823      2.501262       4918.2651    
    405000   1.47115        2204.5183      299.52356      2504.0418      1.5059426      2.1415046      2.452307       4957.17      
    406000   1.4865944      2227.6617      305.42402      2533.0857      1.5150003      2.2518924      2.5687962      4870.1765    
    407000   1.5017701      2250.4025      330.40404      2580.8065      1.4800526      2.418546       2.7157919      4906.2302    
    408000   1.5207414      2278.831       310.41958      2589.2506      1.5288617      2.1760875      2.488699       4916.5619    
    409000   1.5246044      2284.6196      325.576        2610.1956      1.4868807      2.3144372      2.611243       4882.6366    
    410000   1.5341085      2298.8615      321.59859      2620.4601      1.4840542      2.2686491      2.5614931      4896.9761    
    411000   1.5330823      2297.3238      343.21221      2640.536       1.5296651      2.445958       2.7587705      4879.1256    
    412000   1.4882485      2230.1403      313.60758      2543.7479      1.4806002      2.2076684      2.5074854      4912.8622    
    413000   1.5202624      2278.1132      312.34665      2590.4599      1.5236097      2.260223       2.5693627      4939.3641    
    414000   1.4833454      2222.7931      317.94729      2540.7404      1.5111211      2.3026892      2.615741       4915.6995    
    415000   1.4814363      2219.9323      318.42419      2538.3564      1.4648836      2.3241097      2.6216148      4868.3106    
    416000   1.5090714      2261.3435      294.39884      2555.7423      1.5247341      2.1357862      2.4489989      4918.0049    
    417000   1.5305866      2293.584       321.75024      2615.3343      1.5306093      2.2845382      2.5957148      4918.8535    
    418000   1.5394636      2306.8861      305.64747      2612.5336      1.5208083      2.2192862      2.5312811      4814.7326    
    419000   1.4709209      2204.1749      319.11138      2523.2863      1.4365173      2.2583183      2.549181       4820.6542    
    420000   1.506236       2257.0946      301.12176      2558.2164      1.5447489      2.1692241      2.4965669      4836.5899    
    421000   1.5334834      2297.9249      320.86746      2618.7924      1.514829       2.2858226      2.5950337      4838.7437    
    422000   1.5314782      2294.92        291.82376      2586.7438      1.5304368      2.2307351      2.54567        4856.2314    
    423000   1.4504458      2173.4931      322.66597      2496.159       1.4419313      2.3586528      2.6489413      4937.9338    
    424000   1.5275705      2289.0645      332.37864      2621.4431      1.5276743      2.3441771      2.6582845      4863.8719    
    425000   1.4949357      2240.1611      323.72766      2563.8887      1.4855834      2.2711061      2.5746197      4863.8373    
    426000   1.4929265      2237.1504      323.14362      2560.294       1.5024338      2.3240259      2.6400267      4784.5823    
    427000   1.4779629      2214.7274      295.25641      2509.9838      1.5057695      2.3139143      2.6342389      4787.4822    
    428000   1.4377929      2154.5327      340.91857      2495.4513      1.4881906      2.317337       2.6344485      4851.7253    
    429000   1.4514344      2174.9745      320.20639      2495.1809      1.4943515      2.3421281      2.6623741      4800.1405    
    430000   1.5207064      2278.7786      286.70443      2565.483       1.4880741      2.1845562      2.4851699      4841.6774    
    431000   1.5231624      2282.4589      323.75746      2606.2164      1.5051486      2.39251        2.7010009      4820.7355    
    432000   1.4788112      2215.9986      359.95376      2575.9523      1.4854206      2.5904232      2.9029299      4774.3733    
    433000   1.4897056      2232.3239      309.98277      2542.3067      1.5076355      2.3145229      2.6321092      4803.5681    
    434000   1.4803219      2218.2624      305.33798      2523.6003      1.5284783      2.2443968      2.5698946      4843.6176    
    435000   1.4771738      2213.545       266.00384      2479.5488      1.4871381      1.9663063      2.2759849      4834.343     
    436000   1.4953597      2240.7965      361.6846       2602.4811      1.529          2.6291881      2.9552012      4793.0792    
    437000   1.4322545      2146.2334      403.6169       2549.8503      1.4899915      2.6388021      2.957476       4856.5969    
    438000   1.4819989      2220.7753      309.70335      2530.4786      1.4980201      2.2107105      2.5263178      4797.1814    
    439000   1.4795163      2217.0551      359.31465      2576.3698      1.5047382      2.4483512      2.7684164      4780.0718    
    440000   1.5243666      2284.2633      329.48376      2613.7471      1.5321942      2.3566398      2.6749207      4838.5365    
    441000   1.5285773      2290.5731      350.99751      2641.5707      1.5408536      2.4653756      2.788017       4813.7586    
    442000   1.526909       2288.0732      311.96197      2600.0351      1.4796414      2.2996095      2.5966715      4821.9593    
    443000   1.4951777      2240.5238      414.35071      2654.8745      1.4699002      2.736139       3.0395168      4761.8789    
    444000   1.4562868      2182.2458      403.18821      2585.434       1.4905338      2.5936724      2.9103355      4815.0448    
    445000   1.4989797      2246.2211      338.31051      2584.5316      1.5191885      2.4505122      2.768993       4833.5008    
    446000   1.5219886      2280.6999      343.60495      2624.3049      1.4911392      2.3536468      2.6560995      4828.2626    
    447000   1.5736519      2358.1174      295.47083      2653.5882      1.5472509      2.2579222      2.574545       4803.4321    
    448000   1.5330572      2297.2863      292.45564      2589.7419      1.4896046      2.1526011      2.4520784      4829.065     
    449000   1.4716159      2205.2164      322.18733      2527.4037      1.4909179      2.3522717      2.6683041      4778.6258    
    450000   1.5227956      2281.9092      330.66354      2612.5727      1.5289004      2.4529794      2.7764874      4744.8562    
    451000   1.4941494      2238.9829      329.2593       2568.2422      1.5072035      2.3066641      2.623699       4795.1965    
    452000   1.4913371      2234.7686      310.52126      2545.2899      1.5096552      2.3280789      2.6496369      4751.7253    
    453000   1.484413       2224.3928      374.8182       2599.211       1.4976551      2.7659195      3.0832718      4760.9039    
    454000   1.563565       2343.0021      375.78914      2718.7913      1.5339931      2.669954       2.987492       4737.8609    
    455000   1.5489641      2321.1227      329.83003      2650.9527      1.5234285      2.4500383      2.7651417      4753.7358    
    456000   1.5142952      2269.1713      324.36183      2593.5331      1.48186        2.422083       2.7253588      4779.3365    
    457000   1.5428359      2311.9396      331.75079      2643.6904      1.490771       2.4187441      2.7209604      4760.6887    
    458000   1.4990984      2246.399       316.3854       2562.7844      1.4970265      2.4050297      2.7184949      4769.1299    
    459000   1.5749782      2360.1048      306.64972      2666.7545      1.5245124      2.2852896      2.5938665      4777.0811    
    460000   1.4248321      2135.1108      329.49563      2464.6065      1.4376091      2.4140136      2.7202369      4736.3253    
    461000   1.5320756      2295.8152      328.3966       2624.2118      1.5111911      2.5315802      2.8463341      4734.8973    
    462000   1.4960864      2241.8855      351.69579      2593.5813      1.5239413      2.4429957      2.7688254      4762.5132    
    463000   1.4699826      2202.769       318.8987       2521.6677      1.5214911      2.3887352      2.7164747      4799.3848    
    464000   1.4910235      2234.2987      357.18609      2591.4848      1.481946       2.4764685      2.7852414      4770.1       
    465000   1.4877772      2229.4341      320.64558      2550.0797      1.5066696      2.3937401      2.714461       4756.6066    
    466000   1.5065301      2257.5353      311.07505      2568.6104      1.4833902      2.3113081      2.6180066      4761.2667    
    467000   1.5030427      2252.3095      311.16611      2563.4756      1.5129544      2.3485662      2.6705528      4729.5629    
    468000   1.4712417      2204.6557      306.83243      2511.4881      1.4598637      2.3188854      2.6245422      4738.9658    
    469000   1.486213       2227.0902      319.74384      2546.8341      1.5366281      2.3561448      2.6900305      4753.1031    
    470000   1.5090929      2261.3757      316.24556      2577.6212      1.5340296      2.2650915      2.5906963      4787.8331    
    471000   1.4856278      2226.2133      373.21813      2599.4314      1.5125076      2.715607       3.0410876      4729.4995    
    472000   1.4396369      2157.2959      331.55983      2488.8558      1.4941462      2.409568       2.7331081      4786.4268    
    473000   1.4660977      2196.9474      344.47711      2541.4245      1.4740844      2.4954909      2.8069209      4758.8957    
    474000   1.4899617      2232.7077      296.29905      2529.0067      1.5567927      2.2947816      2.6357364      4761.7949    
    475000   1.4601024      2187.9634      289.97595      2477.9394      1.4734129      2.2621417      2.5749009      4753.5296    
    476000   1.5427842      2311.8622      327.77874      2639.6409      1.542748       2.3019419      2.6271925      4743.1473    
    477000   1.5452719      2315.5899      347.52049      2663.1104      1.5320919      2.5242509      2.846684       4710.8215    
    478000   1.4755509      2211.113       364.77698      2575.8899      1.4702043      2.7012937      3.0129462      4700.3089    
    479000   1.5300125      2292.7238      333.92917      2626.6529      1.5078367      2.4961823      2.8113633      4713.7456    
    480000   1.5226997      2281.7655      302.61556      2584.3811      1.5036841      2.329313       2.6434368      4726.4404    
    481000   1.5384788      2305.4105      320.6505       2626.061       1.4908973      2.4714523      2.7789802      4693.4397    
    482000   1.4885095      2230.5315      293.26886      2523.8004      1.4897696      2.2364758      2.5502664      4751.6664    
    483000   1.5103657      2263.2829      318.00522      2581.2882      1.5100677      2.3819903      2.70104        4732.0837    
    484000   1.4194704      2127.0764      343.94028      2471.0166      1.4652955      2.5618879      2.8837803      4694.3466    
    485000   1.5176852      2274.2512      330.72377      2604.975       1.4735561      2.4559167      2.7585531      4723.394     
    486000   1.520687       2278.7495      289.60927      2568.3588      1.5279157      2.251948       2.5757455      4741.0417    
    487000   1.4202694      2128.2737      364.16861      2492.4423      1.4752306      2.531429       2.8511405      4785.9913    
    488000   1.5145866      2269.608       373.90097      2643.509       1.5074787      2.649662       2.9668613      4730.0799    
    489000   1.4375294      2154.1379      393.07537      2547.2132      1.4441128      2.7525957      3.0598399      4721.6177    
    490000   1.5094676      2261.9372      337.54398      2599.4812      1.5138282      2.4922586      2.8136762      4723.401     
    491000   1.471337       2204.7985      339.40052      2544.199       1.4649344      2.4621941      2.770079       4737.2838    
    492000   1.4663606      2197.3414      330.91278      2528.2541      1.4746957      2.5024064      2.8147558      4747.96      
    493000   1.5037017      2253.2969      344.62931      2597.9263      1.5184913      2.5951751      2.9216443      4696.5109    
    494000   1.5156641      2271.2227      327.58599      2598.8086      1.5017161      2.4966107      2.811534       4724.2681    
    495000   1.5402995      2308.1388      341.18508      2649.3239      1.4953372      2.530041       2.8386765      4699.4588    
    496000   1.5197097      2277.285       309.04057      2586.3256      1.455064       2.4415559      2.736125       4720.3953    
    497000   1.4941065      2238.9186      332.48761      2571.4062      1.4712037      2.4964426      2.8055547      4685.4322    
    498000   1.5470884      2318.312       408.24491      2726.5569      1.5221941      2.9263568      3.2477972      4658.1729    
    499000   1.4804524      2218.4579      342.31237      2560.7703      1.4952185      2.5252466      2.8443605      4731.7583    
    500000   1.5241183      2283.8913      355.57948      2639.4708      1.5078361      2.579678       2.8968922      4702.091     
    501000   1.538669       2305.6954      368.96025      2674.6557      1.5331698      2.7044722      3.0275737      4728.1619    
    502000   1.4804576      2218.4657      384.20272      2602.6684      1.4850217      2.7178197      3.0380688      4651.3209    
    503000   1.4820501      2220.8521      406.53471      2627.3868      1.4957543      2.7765232      3.1001447      4664.229     
    504000   1.4320257      2145.8905      323.81751      2469.7081      1.4602198      2.4030289      2.7196197      4701.2924    
    505000   1.5025049      2251.5036      295.78182      2547.2854      1.5218379      2.3369059      2.6649785      4697.5941    
    506000   1.4839865      2223.7538      312.2063       2535.9601      1.4711385      2.3289418      2.6396885      4692.9004    
    507000   1.4912232      2234.5979      362.86001      2597.4579      1.5045482      2.7176189      3.0434743      4658.0774    
    508000   1.4961791      2242.0244      322.46432      2564.4887      1.4984546      2.4774799      2.8005174      4645.6766    
    509000   1.5457832      2316.3561      371.64079      2687.9969      1.5480496      2.7678656      3.1014805      4647.0163    
    510000   1.4673954      2198.892       384.5791       2583.4711      1.5033916      2.8155         3.1478422      4631.8276    
    511000   1.4945256      2239.5466      381.34401      2620.8906      1.5070996      2.8300293      3.159384       4614.0563    
    512000   1.4837831      2223.4489      364.89347      2588.3424      1.4906172      2.6075257      2.9301032      4642.1221    
    513000   1.4890127      2231.2856      375.93262      2607.2182      1.5069927      2.7662114      3.0989835      4582.5797    
    514000   1.5209787      2279.1866      323.9062       2603.0928      1.5374968      2.5021102      2.838362       4621.5313    
    515000   1.5202413      2278.0816      291.64936      2569.7309      1.4960698      2.2023074      2.516145       4690.0761    
    516000   1.4729011      2207.1423      321.06248      2528.2048      1.4569157      2.4638529      2.7738953      4647.5773    
    517000   1.5456075      2316.0929      324.4639       2640.5568      1.5196963      2.5836771      2.9047934      4651.9315    
    518000   1.48606        2226.861       339.42957      2566.2906      1.5031148      2.5146484      2.838649       4691.8199    
    519000   1.5235633      2283.0596      401.10175      2684.1613      1.4879491      2.9395724      3.2534244      4627.5659    
    520000   1.4767799      2212.9547      388.90018      2601.8549      1.4863658      2.8937797      3.2193977      4594.1629    
    521000   1.4817946      2220.4693      330.73273      2551.202       1.466421       2.4993867      2.81028        4667.3968    
    522000   1.4822065      2221.0865      362.73871      2583.8252      1.5106687      2.7445404      3.0744728      4664.9025    
    523000   1.5539954      2328.6621      357.38731      2686.0494      1.5095711      2.5917294      2.905571       4668.5693    
    524000   1.4918968      2235.6073      371.4298       2607.0371      1.4793808      2.7247348      3.0405438      4644.8246    
    525000   1.5274111      2288.8255      373.572        2662.3975      1.4996462      2.7016768      3.0210494      4608.7518    
    526000   1.4456762      2166.3458      347.86314      2514.209       1.4640803      2.4957234      2.8148718      4645.0682    
    527000   1.5144516      2269.4057      364.13609      2633.5418      1.5258934      2.7899043      3.1221793      4626.6612    
    528000   1.5353271      2300.6877      365.8043       2666.492       1.5271165      2.6922525      3.0185828      4654.5304    
    529000   1.4710062      2204.3027      361.40198      2565.7047      1.4649794      2.5523183      2.8668221      4638.9239    
    530000   1.4503902      2173.4098      336.78634      2510.1961      1.4526289      2.5391373      2.8526387      4640.6979    
    531000   1.5762794      2362.0547      381.43164      2743.4864      1.5229593      2.8597804      3.1794769      4597.1483    
    532000   1.5134784      2267.9473      344.81664      2612.764       1.5244282      2.5911266      2.923674       4616.9862    
    533000   1.4072656      2108.7875      351.32728      2460.1148      1.4581796      2.6060963      2.9295008      4666.1152    
    534000   1.5560046      2331.6729      369.42365      2701.0965      1.571296       2.7390154      3.0801359      4651.0606    
    535000   1.4880446      2229.8348      352.55374      2582.3885      1.4951765      2.660067       2.9839576      4638.299     
    536000   1.5523554      2326.2046      329.14622      2655.3508      1.5627805      2.4818958      2.8186677      4671.3973    
    537000   1.4927597      2236.9004      351.48425      2588.3846      1.4976717      2.6548902      2.977529       4657.155     
    538000   1.5043725      2254.3021      358.76889      2613.071       1.5061886      2.6777118      3.0025953      4641.6728    
    539000   1.5244703      2284.4187      369.70648      2654.1252      1.5128038      2.7534597      3.0784119      4619.5993    
    540000   1.4510147      2174.3455      372.34296      2546.6884      1.4449421      2.681965       2.9930894      4624.7596    
    541000   1.4923992      2236.3601      394.46589      2630.826       1.4727108      2.86314        3.1782056      4611.8723    
    542000   1.4852786      2225.69        369.16218      2594.8522      1.5054683      2.8517149      3.1846492      4582.3985    
    543000   1.4465399      2167.6401      367.05669      2534.6968      1.4994683      2.6087724      2.9415704      4664.5222    
    544000   1.5246169      2284.6384      368.74668      2653.3851      1.5424514      2.7484617      3.0874107      4603.2535    
    545000   1.5097904      2262.4209      344.54917      2606.9701      1.5016078      2.6219341      2.9468876      4595.8373    
    546000   1.4784114      2215.3995      331.00256      2546.4021      1.4885851      2.5054939      2.8299478      4619.2961    
    547000   1.5073603      2258.7794      325.21664      2583.996       1.4887564      2.6624361      2.9840175      4571.6915    
    548000   1.5378153      2304.4162      292.15161      2596.5678      1.5397516      2.3507898      2.6832045      4637.8387    
    549000   1.5099508      2262.6613      333.4271       2596.0884      1.5267447      2.647197       2.9830288      4596.1155    
    550000   1.4906548      2233.7461      336.60636      2570.3525      1.5038512      2.5291688      2.8577558      4616.8431    
    551000   1.4669991      2198.2981      380.14378      2578.4419      1.4733497      2.746794       3.0693963      4586.743     
    552000   1.499472       2246.9587      370.47937      2617.4381      1.5089103      2.7504724      3.081529       4586.3434    
    553000   1.5512709      2324.5795      332.91699      2657.4965      1.5472784      2.4653469      2.8043606      4552.294     
    554000   1.5781025      2364.7866      361.6958       2726.4824      1.5458766      2.7746017      3.1068931      4555.2878    
    555000   1.5072289      2258.5825      351.65672      2610.2392      1.4903009      2.7437288      3.0661988      4569.076     
    556000   1.4861116      2226.9382      400.09083      2627.0291      1.4425757      2.9469884      3.2532198      4568.7122    
    557000   1.5366856      2302.7234      340.30671      2643.0301      1.5205327      2.5618922      2.8892588      4595.447     
    558000   1.4877118      2229.3362      356.60334      2585.9395      1.4960869      2.7498912      3.0810306      4543.2629    
    559000   1.499423       2246.8854      373.38637      2620.2717      1.4944981      2.8507079      3.1788622      4539.2608    
    560000   1.4817796      2220.4467      357.0965       2577.5432      1.4941512      2.5805124      2.9102593      4568.6872    
    561000   1.5382996      2305.1419      328.50881      2633.6507      1.5178326      2.5746799      2.9005248      4595.3955    
    562000   1.4985363      2245.5566      405.73486      2651.2915      1.475411       2.8622121      3.1789865      4584.6787    
    563000   1.5237759      2283.3782      378.48777      2661.866       1.5149253      2.8820498      3.2133246      4546.3257    
    564000   1.5076812      2259.2603      351.68381      2610.9441      1.5023503      2.6984355      3.0261034      4568.7264    
    565000   1.4643555      2194.3368      382.47231      2576.8091      1.4754625      2.9440614      3.2714596      4540.5215    
    566000   1.5041063      2253.9033      397.77491      2651.6782      1.4735915      2.9139889      3.2320348      4537.4185    
    567000   1.4993256      2246.7394      388.61624      2635.3557      1.4864345      2.9511644      3.2759994      4536.3234    
    568000   1.472889       2207.1241      368.03549      2575.1596      1.4923343      2.81513        3.1464721      4562.5354    
    569000   1.5798534      2367.4103      424.20869      2791.619       1.5769514      3.0869461      3.4328546      4550.4865    
    570000   1.448852       2171.1048      361.39343      2532.4982      1.489882       2.773132       3.109479       4551.4635    
    571000   1.4564167      2182.4405      381.77879      2564.2193      1.5033652      2.8329094      3.1741916      4542.478     
    572000   1.4878949      2229.6104      433.98876      2663.5992      1.501104       3.1518945      3.4888317      4494.3083    
    573000   1.493229       2237.6037      366.66983      2604.2735      1.4439181      2.928901       3.2383672      4506.6525    
    574000   1.5279196      2289.5875      381.04618      2670.6337      1.498444       2.8005572      3.122148       4567.9101    
    575000   1.5343446      2299.2153      411.87451      2711.0898      1.5041561      3.0173717      3.3407331      4558.361     
    576000   1.5021544      2250.9784      431.22036      2682.1987      1.4886004      2.980872       3.302597       4584.8477    
    577000   1.4857017      2226.324       365.86686      2592.1908      1.4944507      2.7139294      3.0441097      4552.6367    
    578000   1.4748746      2210.0996      401.64477      2611.7444      1.5085218      3.0121657      3.3509568      4551.8763    
    579000   1.5282622      2290.1008      351.16461      2641.2655      1.5352751      2.6588668      2.9985895      4539.8221    
    580000   1.4522775      2176.2378      371.18458      2547.4224      1.501013       2.6306866      2.9709646      4554.2167    
    581000   1.454967       2180.2681      395.81494      2576.083       1.4793858      3.0222531      3.3573759      4487.2505    
    582000   1.4758164      2211.5108      360.86473      2572.3756      1.5078343      2.7038557      3.0434287      4534.578     
[...]
   5259000   1.442818       2162.0627      1325.4396      3487.5023      1.4886397      18.262143      18.873822      2508.5326    
   5260000   1.4932361      2237.6143      1357.2318      3594.8461      1.4780379      19.253567      19.836719      2508.5326    
   5261000   1.5457693      2316.3354      1422.9833      3739.3187      1.4561125      19.634877      20.179636      2508.5326    
   5262000   1.4964848      2242.4825      1413.433       3655.9155      1.4592973      19.895919      20.462843      2508.5326    
   5263000   1.494042       2238.8219      1363.3626      3602.1846      1.4759933      18.636437      19.217638      2508.5326    
   5264000   1.4824564      2221.461       1406.4074      3627.8683      1.4616368      19.247202      19.821577      2508.5326    
   5265000   1.4209497      2129.2932      1398.1861      3527.4793      1.4643779      19.47403       20.075084      2508.5326    
   5266000   1.4528037      2177.0264      1362.917       3539.9434      1.476133       18.660164      19.257899      2508.5326    
   5267000   1.4876456      2229.237       1388.4591      3617.6961      1.4676144      18.999457      19.576529      2508.5326    
   5268000   1.4984226      2245.3863      1341.7162      3587.1025      1.4832047      18.566862      19.152065      2508.5326    
   5269000   1.4846864      2224.8025      1346.3014      3571.1039      1.4816735      18.828925      19.418378      2508.5326    
   5270000   1.4600167      2187.8351      1445.1366      3632.9717      1.448715       19.618737      20.191751      2508.5326    
   5271000   1.4888487      2231.0398      1374.1114      3605.1512      1.472402       19.50298       20.083388      2508.5326    
   5272000   1.4729731      2207.2502      1356.9312      3564.1814      1.4781333      18.430615      19.021913      2508.5326    
   5273000   1.4907926      2233.9527      1322.7485      3556.7012      1.4895376      18.586377      19.179666      2508.5326    
   5274000   1.4971127      2243.4233      1379.0556      3622.4789      1.4707594      18.88493       19.460737      2508.5326    
   5275000   1.4555329      2181.116       1420.3857      3601.5017      1.456974       20.05795       20.639331      2508.5326    
   5276000   1.431861       2145.6438      1467.8476      3613.4914      1.4411452      19.905239      20.483434      2508.5326    
   5277000   1.4269748      2138.3217      1393.6237      3531.9454      1.4659051      19.396727      19.996598      2508.5326    
   5278000   1.4911853      2234.5412      1387.5734      3622.1146      1.4679215      19.24154       19.817446      2508.5326    
   5279000   1.3759849      2061.9134      1440.6941      3502.6076      1.4502053      19.561891      20.169558      2508.5326    
   5280000   1.4820248      2220.8141      1334.4649      3555.279       1.4856321      19.206175      19.799843      2508.5326    
   5281000   1.5262765      2287.1253      1353.8397      3640.965       1.4791714      18.992499      19.563396      2508.5326    
   5282000   1.4703014      2203.2467      1347.4537      3550.7004      1.4813038      18.736397      19.331285      2508.5326    
   5283000   1.4770364      2213.3391      1343.9402      3557.2793      1.4824739      19.158973      19.752111      2508.5326    
   5284000   1.4631571      2192.5409      1360.9041      3553.4449      1.4768207      18.704742      19.298903      2508.5326    
   5285000   1.4464659      2167.5291      1413.4461      3580.9752      1.4593011      19.557901      20.144747      2508.5326    
   5286000   1.4203835      2128.4447      1387.3169      3515.7616      1.46802        18.766482      19.370664      2508.5326    
   5287000   1.4811895      2219.5625      1266.5711      3486.1336      1.5082865      18.004482      18.616536      2508.5326    
   5288000   1.4794542      2216.9622      1364.8853      3581.8475      1.4754962      19.055076      19.641691      2508.5326    
   5289000   1.4442853      2164.2615      1346.8372      3511.0988      1.4815224      19.004949      19.610372      2508.5326    
   5290000   1.4848766      2225.0875      1365.7491      3590.8367      1.4752128      19.176628      19.760858      2508.5326    
   5291000   1.4635605      2193.1454      1416.7977      3609.9431      1.4581842      19.598422      20.177571      2508.5326    
   5292000   1.4853421      2225.7851      1348.2303      3574.0153      1.4810576      19.022622      19.611324      2508.5326    
   5293000   1.4937246      2238.3463      1359.6771      3598.0234      1.4772403      18.770765      19.353086      2508.5326    
   5294000   1.4418619      2160.63        1377.0653      3537.6953      1.4714386      19.294022      19.892375      2508.5326    
   5295000   1.4602371      2188.1653      1397.9354      3586.1007      1.4644803      19.153409      19.738898      2508.5326    
   5296000   1.5387613      2305.8338      1268.9049      3574.7387      1.5075133      17.743917      18.332427      2508.5326    
   5297000   1.4883656      2230.3158      1400.8712      3631.187       1.4635035      19.555845      20.129354      2508.5326    
   5298000   1.4972738      2243.6648      1350.6409      3594.3057      1.4802563      19.071849      19.65516       2508.5326    
   5299000   1.4969548      2243.1868      1372.2964      3615.4832      1.4730293      19.119325      19.697005      2508.5326    
   5300000   1.5051097      2255.4069      1350.3979      3605.8048      1.4803328      18.754594      19.334846      2508.5326    
   5301000   1.4918963      2235.6066      1377.2986      3612.9052      1.4713616      19.00598       19.584345      2508.5326    
   5302000   1.4725036      2206.5467      1438.0044      3644.5511      1.4511177      19.841491      20.411447      2508.5326    
   5303000   1.5187735      2275.8821      1327.8103      3603.6925      1.4878686      18.656997      19.237813      2508.5326    
   5304000   1.4773581      2213.8211      1361.9592      3575.7803      1.47648        18.491024      19.079257      2508.5326    
   5305000   1.5277742      2289.3696      1371.457       3660.8267      1.4733183      19.181486      19.747123      2508.5326    
   5306000   1.4525405      2176.6319      1351.839       3528.4709      1.4798631      18.774933      19.375746      2508.5326    
   5307000   1.5150729      2270.3367      1290.6515      3560.9881      1.5002687      18.257082      18.849253      2508.5326    
   5308000   1.5033695      2252.7991      1353.0237      3605.8228      1.4794685      18.765948      19.346204      2508.5326    
   5309000   1.4748147      2210.0098      1379.7247      3589.7346      1.4705654      19.534674      20.119207      2508.5326    
   5310000   1.4608536      2189.0891      1356.1647      3545.2539      1.4784209      19.41234       20.008693      2508.5326    
   5311000   1.5094617      2261.9284      1321.265       3583.1934      1.4900569      19.342842      19.929109      2508.5326    
   5312000   1.4571022      2183.4676      1430.9206      3614.3882      1.4534883      19.415505      19.993484      2508.5326    
   5313000   1.4724522      2206.4696      1387.9372      3594.4068      1.4678237      19.24925       19.832539      2508.5326    
   5314000   1.4680771      2199.9136      1403.0407      3602.9543      1.4627897      19.508143      20.089163      2508.5326    
   5315000   1.4513631      2174.8676      1470.2776      3645.1451      1.440367       19.861065      20.430873      2508.5326    
   5316000   1.4954519      2240.9347      1382.614       3623.5487      1.4696053      19.452251      20.0278        2508.5326    
   5317000   1.478429       2215.4258      1397.6615      3613.0873      1.4645906      19.308208      19.88654       2508.5326    
   5318000   1.4593746      2186.8729      1393.6784      3580.5513      1.4659165      19.2938        19.880778      2508.5326    
   5319000   1.4819738      2220.7377      1398.6031      3619.3409      1.4642745      19.55526       20.131929      2508.5326    
   5320000   1.4926608      2236.7522      1249.1632      3485.9154      1.5141152      17.853781      18.465911      2508.5326    
   5321000   1.469339       2201.8044      1378.1985      3580.003       1.4710802      19.520203      20.107327      2508.5326    
   5322000   1.4969283      2243.1471      1326.715       3569.8621      1.4882483      18.562951      19.152769      2508.5326    
   5323000   1.4700128      2202.8142      1360.3315      3563.1458      1.477038       18.547304      19.138907      2508.5326    
   5324000   1.4713113      2204.76        1335.4408      3540.2009      1.4853384      18.603162      19.200863      2508.5326    
   5325000   1.4314897      2145.0873      1420.3875      3565.4747      1.457008       19.542552      20.133535      2508.5326    
   5326000   1.4684686      2200.5003      1323.4496      3523.9498      1.4893421      18.519551      19.121574      2508.5326    
   5327000   1.4635883      2193.1871      1384.5804      3577.7675      1.4689588      18.755164      19.342887      2508.5326    
   5328000   1.4532473      2177.6911      1426.8866      3604.5777      1.4548476      19.355174      19.93577       2508.5326    
   5329000   1.4660547      2196.883       1387.7468      3584.6298      1.4679019      18.756084      19.341983      2508.5326    
   5330000   1.4605042      2188.5655      1328.0625      3516.628       1.4878047      18.589043      19.193013      2508.5326    
   5331000   1.439615       2157.2631      1349.2871      3506.5502      1.4807247      18.838877      19.445524      2508.5326    
   5332000   1.4851479      2225.4941      1390.5523      3616.0464      1.4669643      18.378949      18.956498      2508.5326    
   5333000   1.4479478      2169.7498      1462.0927      3631.8424      1.4431136      19.341562      19.914919      2508.5326    
   5334000   1.4751363      2210.4918      1314.1424      3524.6342      1.4924598      18.503351      19.105204      2508.5326    
   5335000   1.5748039      2359.8437      1305.5752      3665.4189      1.4953172      18.692571      19.257008      2508.5326    
   5336000   1.5070744      2258.3509      1342.8808      3601.2317      1.482876       19.174319      19.755815      2508.5326    
   5337000   1.467918       2199.6752      1342.5116      3542.1867      1.482998       18.872065      19.469251      2508.5326    
   5338000   1.4584988      2185.5605      1421.9418      3607.5023      1.4565075      18.947373      19.527202      2508.5326    
   5339000   1.5101046      2262.8918      1361.1033      3623.995       1.4767967      19.305596      19.881041      2508.5326    
   5340000   1.4541651      2179.0664      1369.5293      3548.5956      1.4739884      18.991341      19.586825      2508.5326    
   5341000   1.449851       2172.6018      1376.4496      3549.0513      1.4716759      19.008304      19.603664      2508.5326    
   5342000   1.4696523      2202.2739      1373.5695      3575.8434      1.4726381      19.421504      20.009745      2508.5326    
   5343000   1.501889       2250.5807      1386.0385      3636.6193      1.4684796      19.114843      19.686932      2508.5326    
   5344000   1.4665264      2197.5897      1440.1776      3637.7674      1.4504231      19.657561      20.229344      2508.5326    
   5345000   1.4756019      2211.1894      1388.6133      3599.8026      1.4676184      19.365777      19.947649      2508.5326    
   5346000   1.4955568      2241.0918      1442.8699      3683.9617      1.449526       20.238459      20.797966      2508.5326    
   5347000   1.437512       2154.1118      1432.649       3586.7608      1.452933       19.639828      20.225166      2508.5326    
   5348000   1.467494       2199.0398      1355.1688      3554.2085      1.4787713      18.95114       19.545127      2508.5326    
   5349000   1.4639352      2193.707       1380.0292      3573.7362      1.470481       19.443643      20.032441      2508.5326    
   5350000   1.4417247      2160.4244      1399.5514      3559.9758      1.463972       19.263319      19.855776      2508.5326    
   5351000   1.4489584      2171.2641      1353.8077      3525.0719      1.4792257      19.123137      19.724868      2508.5326    
   5352000   1.5039937      2253.7346      1316.8034      3570.538       1.4915629      18.148093      18.737739      2508.5326    
   5353000   1.4709674      2204.2447      1395.5154      3599.76        1.465312       19.676325      20.258204      2508.5326    
   5354000   1.459779       2187.4789      1399.23        3586.7089      1.4640693      19.317044      19.902388      2508.5326    
   5355000   1.4656069      2196.2119      1406.1581      3602.37        1.461759       19.050037      19.63122       2508.5326    
   5356000   1.4905997      2233.6636      1324.1958      3557.8594      1.4890921      18.219529      18.81254       2508.5326    
   5357000   1.4792655      2216.6793      1331.2284      3547.9077      1.4867483      18.297133      18.892789      2508.5326    
   5358000   1.5160277      2271.7675      1335.8314      3607.5988      1.4852147      18.576103      19.155897      2508.5326    
   5359000   1.5176701      2274.2286      1300.857       3575.0857      1.4968724      18.606754      19.195184      2508.5326    
   5360000   1.4973588      2243.7921      1342.76        3586.5521      1.4828959      18.889104      19.474485      2508.5326    
   5361000   1.4979809      2244.7243      1386.2655      3630.9899      1.4683934      19.519655      20.093232      2508.5326    
   5362000   1.4089267      2111.2766      1439.84        3551.1167      1.4505258      19.431435      20.026238      2508.5326    
   5363000   1.5166809      2272.7463      1338.5208      3611.2671      1.48432        18.374952      18.953773      2508.5326    
   5364000   1.4935089      2238.0231      1348.0738      3586.0969      1.4811282      18.856182      19.441688      2508.5326    
   5365000   1.4409686      2159.2914      1388.8913      3548.1827      1.4675178      18.766623      19.362207      2508.5326    
   5366000   1.5020988      2250.895       1381.5746      3632.4696      1.469963       18.898034      19.471222      2508.5326    
   5367000   1.4657897      2196.4858      1320.1591      3516.645       1.4904431      18.778811      19.382779      2508.5326    
   5368000   1.539183       2306.4658      1253.2645      3559.7303      1.5127612      18.290024      18.882548      2508.5326    
   5369000   1.4736178      2208.2162      1393.2354      3601.4516      1.4660859      18.762448      19.343888      2508.5326    
   5370000   1.4599363      2187.7145      1395.2335      3582.948       1.4654208      19.018776      19.605135      2508.5326    
   5371000   1.4883273      2230.2584      1424.8152      3655.0736      1.4555492      19.448187      20.015372      2508.5326    
   5372000   1.568164       2349.8938      1349.2113      3699.105       1.4807591      19.535814      20.091295      2508.5326    
   5373000   1.5293448      2291.7232      1305.9464      3597.6696      1.4951892      18.698799      19.281238      2508.5326    
   5374000   1.444914       2165.2036      1360.5121      3525.7157      1.4769936      18.725791      19.327354      2508.5326    
   5375000   1.4513923      2174.9114      1397.3379      3572.2493      1.4647131      19.179538      19.768736      2508.5326    
   5376000   1.4704881      2203.5264      1359.6736      3563.2         1.4772744      19.302194      19.893796      2508.5326    
   5377000   1.4578344      2184.5648      1414.5681      3599.1329      1.4589682      19.350154      19.932208      2508.5326    
   5378000   1.4824074      2221.3874      1351.1231      3572.5105      1.4801249      19.213805      19.802932      2508.5326    
   5379000   1.5140248      2268.7662      1370.5079      3639.2741      1.4736615      18.562963      19.134348      2508.5326    
   5380000   1.483427       2222.9154      1308.9963      3531.9117      1.4941716      18.287175      18.887089      2508.5326    
   5381000   1.4714672      2204.9936      1325.9218      3530.9154      1.4885286      18.500086      19.100267      2508.5326    
   5382000   1.4467264      2167.9196      1336.9095      3504.8291      1.4848631      18.485759      19.092872      2508.5326    
   5383000   1.4606396      2188.7685      1396.9912      3585.7596      1.4648288      18.973134      19.55874       2508.5326    
   5384000   1.5590882      2336.2937      1305.9543      3642.2481      1.4951849      18.772594      19.343185      2508.5326    
   5385000   1.4610284      2189.3511      1393.6667      3583.0178      1.4659271      19.066338      19.652665      2508.5326    
   5386000   1.5022359      2251.1005      1314.0339      3565.1344      1.4924824      18.448145      19.039223      2508.5326    
   5387000   1.5355301      2300.9919      1311.7453      3612.7372      1.4932517      18.198303      18.776735      2508.5326    
   5388000   1.4856291      2226.2152      1329.5188      3555.734       1.4873228      18.541819      19.135399      2508.5326    
   5389000   1.4972296      2243.5985      1337.4069      3581.0054      1.4846912      19.049797      19.63666       2508.5326    
   5390000   1.5582461      2335.0317      1299.0548      3634.0865      1.4974821      18.237851      18.810608      2508.5326    
   5391000   1.5026038      2251.6518      1375.9728      3627.6245      1.4718338      18.707331      19.281808      2508.5326    
   5392000   1.4782934      2215.2227      1379.3009      3594.5236      1.4707253      18.476664      19.059939      2508.5326    
   5393000   1.50145        2249.9228      1292.3492      3542.272       1.499719       18.259363      18.856521      2508.5326    
   5394000   1.4616665      2190.3072      1283.3489      3473.6561      1.5027195      18.055157      18.670549      2508.5326    
   5395000   1.4792926      2216.7199      1378.4538      3595.1737      1.4710038      19.342382      19.925481      2508.5326    
   5396000   1.5045515      2254.5704      1394.685       3649.2553      1.4655917      19.223531      19.792258      2508.5326    
   5397000   1.4607925      2188.9975      1398.907       3587.9045      1.4641828      19.263498      19.848529      2508.5326    
   5398000   1.4557154      2181.3895      1392.014       3573.4035      1.4664834      19.105701      19.694587      2508.5326    
   5399000   1.4685036      2200.5527      1348.6978      3549.2506      1.4809268      18.641406      19.236709      2508.5326    
   5400000   1.4388031      2156.0464      1336.83        3492.8765      1.4848854      18.389377      18.999662      2508.5326    
Loop time of 9832.41 on 64 procs for 200000 steps with 1000 atoms

Performance: 175.745 tau/day, 20.341 timesteps/s, 20.341 katom-step/s
99.6% CPU use with 64 MPI tasks x 1 OpenMP threads

MPI task timing breakdown:
Section |  min time  |  avg time  |  max time  |%varavg| %total
---------------------------------------------------------------
Pair    | 5268.9     | 7802.1     | 9434.2     | 822.0 | 79.35
Neigh   | 0.00033447 | 0.00042167 | 0.00049231 |   0.0 |  0.00
Comm    | 395.33     | 2026.6     | 4557.8     |1613.3 | 20.61
Output  | 0.086279   | 0.32067    | 0.94375    |  28.7 |  0.00
Modify  | 0.332      | 0.41971    | 0.45761    |   3.4 |  0.00
Other   |            | 2.887      |            |       |  0.03

Nlocal:         15.625 ave          19 max          13 min
Histogram: 4 4 0 20 0 23 11 0 1 1
Nghost:        237.391 ave         249 max         223 min
Histogram: 2 2 5 10 8 9 10 5 8 5
Neighs:        204.656 ave         251 max         135 min
Histogram: 1 1 1 4 11 13 13 14 3 3

Total # of neighbors = 13098
Ave neighs/atom = 13.098
Neighbor list builds = 25
Dangerous builds = 0
Total wall time: 63:59:58
