LAMMPS data file for polygons
1 atoms
1 bodies
1 atom types
-1 1 xlo xhi
-1 1 ylo yhi
-1 1 zlo zhi

Atoms

1 1 1 1 0 0 0

Bodies

1 3 239
24 36 22
0.1570865624343531 0.1570865624343531 0.15708656243435307 0 0 0
-0.6681740386052545 -0.22272467953508482 0.0 
-0.6681740386052545 0.22272467953508482 0.0 
-0.44544935907016964 -0.44544935907016964 -0.31498026247371824 
-0.44544935907016964 -0.44544935907016964 0.31498026247371824 
-0.44544935907016964 0.44544935907016964 -0.31498026247371824 
-0.44544935907016964 0.44544935907016964 0.31498026247371824 
-0.22272467953508482 -0.6681740386052545 0.0 
-0.22272467953508482 -0.22272467953508482 -0.6299605249474366 
-0.22272467953508482 -0.22272467953508482 0.6299605249474366 
-0.22272467953508482 0.22272467953508482 -0.6299605249474366 
-0.22272467953508482 0.22272467953508482 0.6299605249474366 
-0.22272467953508482 0.6681740386052545 0.0 
0.22272467953508482 -0.6681740386052545 0.0 
0.22272467953508482 -0.22272467953508482 -0.6299605249474366 
0.22272467953508482 -0.22272467953508482 0.6299605249474366 
0.22272467953508482 0.22272467953508482 -0.6299605249474366 
0.22272467953508482 0.22272467953508482 0.6299605249474366 
0.22272467953508482 0.6681740386052545 0.0 
0.44544935907016964 -0.44544935907016964 -0.31498026247371824 
0.44544935907016964 -0.44544935907016964 0.31498026247371824 
0.44544935907016964 0.44544935907016964 -0.31498026247371824 
0.44544935907016964 0.44544935907016964 0.31498026247371824 
0.6681740386052545 -0.22272467953508482 0.0 
0.6681740386052545 0.22272467953508482 0.0 
0 1 
0 2 
0 3 
1 4 
1 5 
2 6 
2 7 
3 6 
3 8 
4 9 
4 11 
5 10 
5 11 
6 12 
7 9 
7 13 
8 10 
8 14 
9 15 
10 16 
11 17 
12 18 
12 19 
13 15 
13 18 
14 16 
14 19 
15 20 
16 21 
17 20 
17 21 
18 22 
19 22 
20 23 
21 23 
22 23 
1 5 11 4 
0 2 6 3 
0 1 4 9
0 9 7 2
0 3 8 10 
0 10 5 1 
7 9 15 13 
8 14 16 10 
2 7 13 18 
2 18 12 6
3 6 12 19 
3 19 14 8
12 18 22 19 
4 11 17 20
4 20 15 9
13 15 20 23
13 23 22 18
5 10 16 21
5 21 17 11
14 19 22 23 
14 23 21 16
17 21 23 20 
0.3