LAMMPS (22 Jul 2025)
OMP_NUM_THREADS environment is not set. Defaulting to 1 thread.
  using 1 OpenMP thread(s) per MPI task
# 3d rounded 3d

variable    r     index 10
variable    steps index 100000

units       lj
dimension   3
newton on

neighbor     1.0 bin
neigh_modify every 100 delay 0 check yes

atom_style  body rounded/polyhedron 1 30

read_data   data.3d
Reading data file ...
  orthogonal box = (-1 -1 -1) to (1 1 1)
  4 by 4 by 4 MPI processor grid
  reading atoms ...
  1 atoms
  1 bodies
  read_data CPU = 0.008 seconds

replicate   $r $r $r
replicate   10 $r $r
replicate   10 10 $r
replicate   10 10 10
Replication is creating a 10x10x10 = 1000 times larger system...
  orthogonal box = (-1 -1 -1) to (19 19 19)
  4 by 4 by 4 MPI processor grid
  1000 atoms
  replicate CPU = 0.001 seconds

change_box all x final -10 10 y final -10 10 z final -10 10
Changing box ...
  orthogonal box = (-10 -1 -1) to (10 19 19)
  orthogonal box = (-10 -10 -1) to (10 10 19)
  orthogonal box = (-10 -10 -10) to (10 10 10)

velocity all create 3 1888 rot yes dist gaussian
set atom * quat/random 6741
Setting atom values ...
  1000 settings made for quat/random

variable cut_inner  equal 0.0
variable k_n        equal 500
variable k_na       equal 0
variable c_n        equal 0
variable c_t        equal 0
variable mu         equal 0
variable A_ua       equal 1

pair_style body/rounded/polyhedron ${c_n} ${c_t} ${mu} ${A_ua} ${cut_inner}
pair_style body/rounded/polyhedron 0 ${c_t} ${mu} ${A_ua} ${cut_inner}
pair_style body/rounded/polyhedron 0 0 ${mu} ${A_ua} ${cut_inner}
pair_style body/rounded/polyhedron 0 0 0 ${A_ua} ${cut_inner}
pair_style body/rounded/polyhedron 0 0 0 1 ${cut_inner}
pair_style body/rounded/polyhedron 0 0 0 1 0
pair_coeff * * ${k_n} ${k_na}
pair_coeff * * 500 ${k_na}
pair_coeff * * 500 0

comm_modify vel yes

timestep     0.0001

compute 1 all temp/body
compute 1p all pressure 1
fix          1 all npt/body temp 1.5 1.5 0.01 iso 1.0 20 0.1

thermo_style custom step temp ke pe etotal c_1 press c_1p vol

thermo       1000
thermo_modify norm no

compute 10 all property/atom x y z quatw quati quatj quatk
dump mydump all custom 1000 dump.quat id c_10[1] c_10[2] c_10[3] c_10[4] c_10[5] c_10[6] c_10[7]

run          5000000
Generated 0 of 0 mixed pair_coeff terms from geometric mixing rule
Neighbor list info ...
  update: every = 100 steps, delay = 0 steps, check = yes
  max neighbors/atom: 2000, page size: 100000
  master list distance cutoff = 2.4086346
  ghost atom cutoff = 2.4086346
  binsize = 1.2043173, bins = 17 17 17
  1 neighbor lists, perpetual/occasional/extra = 1 0 0
  (1) pair body/rounded/polyhedron, perpetual
      attributes: half, newton on
      pair build: half/bin/atomonly/newton
      stencil: half/bin/3d
      bin: standard
Per MPI rank memory allocation (min/avg/max) = 7.712 | 7.733 | 7.753 Mbytes
   Step          Temp          KinEng         PotEng         TotEng          c_1           Press           c_1p          Volume    
         0   3              4495.5         0              4495.5         1.4992496      0.374625       0.374625       8000         
      1000   2.5970788      3891.7225      105.49294      3997.2155      1.496596       0.94164007     1.0002226      6780.408     
      2000   2.2816648      3419.0747      122.48996      3541.5647      1.5020979      0.87818112     0.97605361     7390.3366    
      3000   2.1288612      3190.0986      119.1982       3309.2968      1.5499258      0.84909574     0.97857438     7503.7035    
      4000   1.9090665      2860.7361      136.30333      2997.0394      1.4740428      0.87931165     1.0183363      7476.7627    
      5000   1.8450482      2764.8047      131.79263      2896.5973      1.4844531      0.84526133     0.99881806     7321.1936    
      6000   1.7933226      2687.2939      134.85075      2822.1446      1.5271957      0.85987851     1.0322676      7316.7905    
      7000   1.7019492      2550.3709      122.97276      2673.3436      1.505562       0.81661834     1.0003455      7126.7142    
      8000   1.6104444      2413.2509      113.48305      2526.7339      1.4771842      0.83245545     1.0202794      7155.9402    
      9000   1.5695589      2351.9841      114.2105       2466.1946      1.4737316      0.79206173     0.98462884     7155.9468    
     10000   1.5814744      2369.8394      109.13775      2478.9772      1.5182211      0.77060007     0.97691677     7052.4146    
     11000   1.5506067      2323.5841      116.59387      2440.178       1.502469       0.78310597     0.98971991     7039.1159    
     12000   1.5167647      2272.8719      110.29383      2383.1658      1.4755313      0.76876648     0.97339404     7009.5111    
     13000   1.5570099      2333.1793      117.59486      2450.7742      1.5096717      0.84005692     1.0516559      6911.0973    
     14000   1.5276373      2289.1645      167.33284      2456.4974      1.5032707      0.99819024     1.2129839      6885.3444    
     15000   1.4771695      2213.5385      100.42735      2313.9659      1.4786233      0.76634292     0.976791       7032.9733    
     16000   1.5073458      2258.7577      127.92313      2386.6808      1.4738439      0.87662697     1.0869829      6847.3269    
     17000   1.4624116      2191.4238      126.44001      2317.8638      1.4743415      0.89050201     1.1069581      6866.3327    
     18000   1.4824637      2221.4718      132.17587      2353.6477      1.5240838      0.87307492     1.0990533      6928.3711    
     19000   1.5234704      2282.9204      107.50206      2390.4225      1.5222783      0.81402736     1.0337478      6922.829     
     20000   1.5178191      2274.4519      117.68258      2392.1345      1.4858799      0.86607344     1.0796749      6806.9427    
     21000   1.5430176      2312.2119      132.49842      2444.7103      1.5106181      0.91829799     1.1379775      6729.1255    
     22000   1.5226785      2281.7337      117.09562      2398.8293      1.5301307      0.84903891     1.0744456      6821.3387    
     23000   1.5012298      2249.5929      135.11001      2384.7029      1.4858908      0.89083752     1.1057928      6841.2705    
     24000   1.5750729      2360.2467      136.36112      2496.6079      1.5325629      0.91988386     1.1393353      6790.0919    
     25000   1.4994506      2246.9267      126.66998      2373.5967      1.4918239      0.89639565     1.1152035      6783.1431    
     26000   1.5340216      2298.7313      145.40997      2444.1413      1.5250936      0.95088607     1.1753616      6754.2977    
     27000   1.4930584      2237.3481      141.46739      2378.8155      1.5057889      0.89854936     1.1207252      6834.7074    
     28000   1.475298       2210.7341      125.45751      2336.1916      1.4684239      0.82554097     1.0374008      6898.6974    
     29000   1.4997508      2247.3765      119.52857      2366.9051      1.4729371      0.87723422     1.0941303      6667.4795    
     30000   1.5473612      2318.7207      108.04979      2426.7705      1.5205878      0.80244292     1.0238943      6745.6841    
     31000   1.5035621      2253.0879      134.69393      2387.7818      1.4934828      0.89607943     1.1213446      6585.1887    
     32000   1.5050896      2255.3768      101.35621      2356.733       1.4881606      0.80026848     1.0222145      6628.8561    
     33000   1.4866343      2227.7215      124.19189      2351.9134      1.530849       0.85448681     1.0904063      6676.0901    
     34000   1.4798527      2217.5593      117.58375      2335.143       1.5054899      0.86766034     1.1013396      6552.1502    
     35000   1.5040836      2253.8692      125.2325       2379.1017      1.5088411      0.90538743     1.1344353      6608.1987    
     36000   1.4795819      2217.1535      141.11379      2358.2673      1.4707838      0.98159752     1.2026019      6615.2279    
     37000   1.5260277      2286.7525      136.86317      2423.6157      1.4900469      0.9638334      1.1831154      6631.198     
     38000   1.5228601      2282.0059      148.57014      2430.576       1.4964349      0.94015782     1.1581312      6744.1091    
     39000   1.4752131      2210.6068      158.52742      2369.1342      1.4918027      1.0215755      1.2479173      6664.1498    
     40000   1.4918315      2235.5096      135.40251      2370.9121      1.5001152      0.90377093     1.1284812      6712.6026    
     41000   1.530739       2293.8124      113.61286      2407.4252      1.5101568      0.83824926     1.0622555      6649.7923    
     42000   1.5098889      2262.5686      132.06626      2394.6348      1.4970571      0.92951596     1.1535144      6626.1092    
     43000   1.5131552      2267.4631      178.64457      2446.1077      1.4700363      1.0894219      1.3071281      6554.5226    
     44000   1.5101812      2263.0065      156.92815      2419.9347      1.4769174      1.0267398      1.2480167      6524.3457    
     45000   1.5570289      2333.2078      132.94437      2466.1521      1.5081051      0.97080063     1.1927475      6574.6817    
     46000   1.5194043      2276.8273      134.44491      2411.2722      1.5097647      0.9579005      1.187318       6538.8847    
     47000   1.4767953      2212.9778      103.60112      2316.5789      1.4891781      0.83349522     1.0633434      6532.7847    
     48000   1.4593913      2186.8978      147.91232      2334.8102      1.463392       0.98394605     1.2130566      6404.7189    
     49000   1.5045314      2254.5403      134.67476      2389.215       1.5236451      0.9917116      1.2313144      6438.7391    
     50000   1.4887229      2230.8512      89.209154      2320.0604      1.517682       0.76251775     1.0004536      6500.1215    
     51000   1.4409027      2159.1927      117.59449      2276.7872      1.4761064      0.9194022      1.1563592      6377.8452    
     52000   1.4510557      2174.407       131.8177       2306.2247      1.4907716      0.92202689     1.1602695      6423.9039    
     53000   1.5014038      2249.8535      147.46067      2397.3142      1.515325       1.0106368      1.2468975      6472.6484    
     54000   1.5112137      2264.5537      125.06629      2389.62        1.4965077      0.94641302     1.1747661      6489.1451    
     55000   1.4852819      2225.6949      137.19007      2362.885       1.5185104      0.98526555     1.2244417      6487.7099    
     56000   1.5123822      2266.3047      132.57183      2398.8765      1.5206746      0.97323631     1.2109234      6432.6534    
     57000   1.4292842      2141.7824      140.31112      2282.0935      1.4696065      1.0686486      1.3044212      6404.0033    
     58000   1.5437198      2313.2641      135.38418      2448.6483      1.5292217      1.0057091      1.2410527      6436.2853    
     59000   1.5076237      2259.1741      133.27395      2392.4481      1.5206517      0.96967367     1.2101326      6378.0809    
     60000   1.5278336      2289.4587      163.67076      2453.1295      1.5130863      1.1096486      1.3467401      6319.729     
     61000   1.4923841      2236.3375      121.57816      2357.9157      1.4838228      0.92034668     1.1515857      6379.8484    
     62000   1.4982967      2245.1976      159.2677       2404.4653      1.5093579      1.0860606      1.3240521      6388.4978    
     63000   1.4816484      2220.2501      151.61769      2371.8678      1.505486       1.0268372      1.2666315      6377.5482    
     64000   1.4899354      2232.6682      155.06963      2387.7379      1.4948821      1.1051047      1.3430834      6302.3446    
     65000   1.3867788      2078.088       154.28499      2232.373       1.4352339      1.0504851      1.2861714      6294.9801    
     66000   1.503803       2253.4487      143.07737      2396.5261      1.5059379      1.0583988      1.2994003      6257.5155    
     67000   1.5345615      2299.5404      125.51556      2425.056       1.5265715      0.95966578     1.2031693      6236.4154    
     68000   1.4068728      2108.1989      128.5168       2236.7157      1.4526042      0.93490151     1.1712821      6338.4655    
     69000   1.4642265      2194.1435      120.07764      2314.2211      1.4829485      0.95301555     1.1952841      6198.2946    
     70000   1.4487692      2170.9806      124.15824      2295.1389      1.4752465      0.96943176     1.2078794      6297.8064    
     71000   1.5017851      2250.425       148.24922      2398.6742      1.4913874      1.1411372      1.3788553      6230.0693    
     72000   1.4934215      2237.8922      146.17792      2384.0701      1.5073883      1.0320343      1.272085       6337.581     
     73000   1.5223355      2281.2197      168.86468      2450.0844      1.4932253      1.1734522      1.4068392      6273.4612    
     74000   1.5152101      2270.5424      147.67609      2418.2184      1.5028755      1.0699337      1.3048811      6344.1989    
     75000   1.529733       2292.3048      181.78192      2474.0868      1.50319        1.1601841      1.3927029      6350.7712    
     76000   1.5330584      2297.288       148.53815      2445.8262      1.485262       1.0434951      1.2715146      6304.3436    
     77000   1.5440794      2313.803       118.51373      2432.3167      1.4889792      0.9801602      1.2090744      6264.0669    
     78000   1.5365105      2302.461       103.7899       2406.2509      1.5247456      0.91420156     1.1559466      6258.6298    
     79000   1.5223973      2281.3124      141.99879      2423.3112      1.5407828      1.0540312      1.3036939      6245.0248    
     80000   1.4951757      2240.5208      154.08686      2394.6077      1.4741658      1.1000813      1.3322368      6259.4969    
     81000   1.484461       2224.4649      155.1132       2379.578       1.4853322      1.1430701      1.3785728      6310.7658    
     82000   1.5407519      2308.8167      172.48139      2481.2981      1.5295875      1.2033599      1.4453197      6275.5624    
     83000   1.5351461      2300.4164      163.2189       2463.6353      1.4880224      1.0995418      1.3316682      6207.5915    
     84000   1.5114463      2264.9023      138.49758      2403.3999      1.5193188      0.99886223     1.2423475      6272.1786    
     85000   1.4602489      2188.1829      155.88985      2344.0727      1.4773691      1.0529149      1.2915635      6262.228     
     86000   1.4867902      2227.9551      147.09012      2375.0452      1.4702224      1.0789069      1.3137277      6190.555     
     87000   1.4958027      2241.4604      164.01599      2405.4763      1.4968163      1.1315134      1.3730538      6201.1539    
     88000   1.6079033      2409.4431      135.76145      2545.2046      1.5703795      1.0188432      1.2655707      6212.901     
     89000   1.5695752      2352.0084      145.59651      2497.6049      1.5194524      1.035478       1.2708955      6241.591     
     90000   1.6009122      2398.967       142.05242      2541.0194      1.5452222      1.1079805      1.3478958      6208.8083    
     91000   1.5741764      2358.9034      154.71718      2513.6206      1.5109652      1.1486095      1.3822415      6196.9968    
     92000   1.5401946      2307.9816      153.56624      2461.5479      1.5053575      1.0731627      1.3073717      6278.816     
     93000   1.548713       2320.7464      180.3371       2501.0835      1.4906483      1.2046089      1.4355327      6203.9578    
     94000   1.5238991      2283.5627      168.76124      2452.324       1.4794202      1.1942584      1.4297989      6092.3097    
     95000   1.4410329      2159.3879      164.17716      2323.565       1.4446608      1.1897335      1.4263658      6120.4029    
     96000   1.5070586      2258.3273      133.63305      2391.9603      1.5270926      1.0613941      1.3115201      6185.3077    
     97000   1.4901666      2233.0147      160.2186       2393.2333      1.5104392      1.0940884      1.342216       6168.9691    
     98000   1.4742531      2209.1683      163.65649      2372.8248      1.4812864      1.2046333      1.4493192      6082.5452    
     99000   1.5325399      2296.511       144.23816      2440.7492      1.5025466      1.1035685      1.3456741      6082.4026    
    100000   1.5115257      2265.0212      151.99459      2417.0158      1.4960422      1.0969519      1.3394071      6106.5889    
    101000   1.4712652      2204.6908      141.81176      2346.5026      1.5072545      1.0163417      1.2697393      6090.0668    
    102000   1.4998061      2247.4595      160.57946      2408.039       1.5015731      1.1658576      1.4152716      6027.4808    
    103000   1.4620401      2190.8671      185.87145      2376.7385      1.4671443      1.2178956      1.4602533      6074.6706    
    104000   1.5116563      2265.2169      170.09414      2435.3111      1.5103479      1.1681415      1.417606       6049.1206    
    105000   1.4676942      2199.3397      155.04311      2354.3828      1.4725009      1.1603716      1.404662       6047.3236    
    106000   1.4613416      2189.8204      135.97748      2325.7979      1.4889405      1.076202       1.3258436      6074.755     
    107000   1.4929404      2237.1713      156.12752      2393.2988      1.4907251      1.127485       1.374164       6034.2075    
    108000   1.5294403      2291.8663      167.66808      2459.5344      1.518821       1.2160025      1.4673167      6001.3004    
    109000   1.4746425      2209.7517      204.65242      2414.4042      1.486059       1.3078809      1.5560133      6034.9409    
    110000   1.5244762      2284.4276      158.52103      2442.9487      1.5024973      1.2174666      1.465583       5967.1201    
    111000   1.5369646      2303.1414      151.04371      2454.1851      1.5012835      1.190422       1.4389458      5897.3757    
    112000   1.5158085      2271.4391      172.16948      2443.6086      1.4940399      1.2344564      1.4799771      5996.613     
    113000   1.5252035      2285.5175      148.51502      2434.0325      1.5081393      1.1972236      1.4465045      5981.5728    
    114000   1.5442243      2314.0201      125.02863      2439.0488      1.538637       0.96532857     1.2191443      6040.0322    
    115000   1.4802081      2218.0918      145.4608       2363.5526      1.4981837      1.1516701      1.4027618      6038.1963    
    116000   1.5001238      2247.9355      164.55762      2412.4931      1.5055157      1.2447479      1.4987399      5948.6205    
    117000   1.5094502      2261.9111      157.77142      2419.6826      1.5073106      1.1803673      1.4321099      5979.0163    
    118000   1.4609009      2189.1599      155.79269      2344.9526      1.4836745      1.2031514      1.45693        5935.9818    
    119000   1.4960383      2241.8134      159.52741      2401.3408      1.4752947      1.1759662      1.4191155      5982.219     
    120000   1.549087       2321.3069      172.56534      2493.8722      1.5378765      1.2818959      1.5375585      5971.4532    
    121000   1.4746995      2209.8372      159.25959      2369.0968      1.479374       1.1777783      1.4255726      5989.0162    
    122000   1.4544521      2179.4964      186.7541       2366.2505      1.485311       1.2506186      1.5016043      6040.74      
    123000   1.4859979      2226.7679      172.48176      2399.2497      1.4997129      1.1839159      1.4357754      6008.9606    
    124000   1.5318236      2295.4376      193.41473      2488.8524      1.5428688      1.3371468      1.5958186      6007.2372    
    125000   1.5234103      2282.8304      198.33604      2481.1664      1.5259637      1.332308       1.5880214      5977.4507    
    126000   1.5187185      2275.7997      160.54788      2436.3476      1.5018039      1.2153114      1.4637997      5975.761     
    127000   1.4705904      2203.6798      165.14666      2368.8264      1.4802327      1.2105239      1.4575875      6030.2902    
    128000   1.4828266      2222.0157      169.06657      2391.0822      1.4422907      1.2004354      1.4392861      5868.9183    
    129000   1.4938548      2238.5414      183.13363      2421.675       1.511699       1.3745057      1.637655       5812.3867    
    130000   1.5313369      2294.7083      159.6821       2454.3904      1.5119273      1.2520383      1.5071334      5850.9058    
    131000   1.5187432      2275.8367      185.32163      2461.1583      1.4984674      1.2907762      1.5399612      5932.1874    
    132000   1.564506       2344.4122      149.41162      2493.8238      1.5242159      1.2332714      1.4862185      5866.7057    
    133000   1.4951763      2240.5216      159.3503       2399.8719      1.4831109      1.1651377      1.4162842      5857.3693    
    134000   1.4903186      2233.2425      198.20346      2431.4459      1.4755526      1.3571426      1.6074066      5837.0431    
    135000   1.501203       2249.5527      171.85118      2421.4039      1.4960862      1.2887901      1.5446051      5828.3323    
    136000   1.461392       2189.8959      157.81352      2347.7094      1.4490754      1.2298852      1.4743804      5876.4779    
    137000   1.5291628      2291.4505      183.47011      2474.9206      1.509839       1.3678319      1.6254687      5785.4103    
    138000   1.5300081      2292.7171      173.16571      2465.8828      1.5387006      1.2747275      1.5392438      5849.8641    
    139000   1.482762       2221.9189      186.62532      2408.5442      1.4817542      1.3301505      1.5857796      5792.5633    
    140000   1.5037499      2253.3692      171.26943      2424.6386      1.5010744      1.3022508      1.5588525      5839.4065    
    141000   1.591202       2384.4162      162.37645      2546.7927      1.5672392      1.2815457      1.5461292      5832.942     
    142000   1.4430629      2162.4297      164.51471      2326.9444      1.4861129      1.2402476      1.5021776      5837.8951    
    143000   1.5028665      2252.0454      178.79978      2430.8452      1.5205588      1.2962434      1.5619109      5790.0698    
    144000   1.5264027      2287.3144      168.48945      2455.8039      1.5140109      1.3061546      1.5680871      5732.895     
    145000   1.5034077      2252.8565      181.90326      2434.7597      1.4776892      1.3316176      1.5830541      5774.8019    
    146000   1.5026254      2251.6841      157.96834      2409.6525      1.4767603      1.236966       1.489613       5742.878     
    147000   1.4922641      2236.1578      163.64423      2399.802       1.4886636      1.2304156      1.4895536      5730.7944    
    148000   1.444254       2164.2147      163.70322      2327.9179      1.4948956      1.278781       1.5449674      5806.0322    
    149000   1.4858159      2226.4952      162.73513      2389.2303      1.4959478      1.260953       1.5209568      5792.4896    
    150000   1.4843044      2224.2301      175.34613      2399.5763      1.4846545      1.3512641      1.6089209      5763.4959    
    151000   1.5434922      2312.9231      165.94681      2478.8699      1.554509       1.2860651      1.5569321      5779.6428    
    152000   1.4900412      2232.8268      175.40569      2408.2325      1.4802564      1.2833434      1.5391105      5749.2969    
    153000   1.5931999      2387.4101      181.96943      2569.3795      1.5425707      1.4054037      1.6677067      5688.0471    
    154000   1.4419612      2160.7789      182.36798      2343.1469      1.4596552      1.3083524      1.5643094      5771.7964    
    155000   1.4433389      2162.8433      157.79058      2320.6339      1.465134       1.2449854      1.5014452      5797.818     
    156000   1.4881704      2230.0234      181.73274      2411.7561      1.5106784      1.3197551      1.5848565      5783.3105    
    157000   1.5186788      2275.7401      183.61503      2459.3551      1.5239599      1.3477999      1.615256       5717.7074    
    158000   1.5172189      2273.5525      200.44555      2473.9981      1.5008581      1.3514938      1.6120739      5696.957     
    159000   1.4925468      2236.5814      170.36917      2406.9505      1.4813986      1.3549901      1.6123656      5712.5149    
    160000   1.4882073      2230.0786      199.10166      2429.1802      1.4850972      1.3894662      1.6469743      5755.1203    
    161000   1.5205927      2278.6082      181.34112      2459.9493      1.5128084      1.4411579      1.7052411      5699.0808    
    162000   1.5271187      2288.3874      200.20899      2488.5964      1.4738509      1.4202942      1.6694239      5702.3966    
    163000   1.5122952      2266.1743      199.40869      2465.583       1.4644957      1.4626106      1.7079233      5775.2557    
    164000   1.5481301      2319.873       181.94933      2501.8223      1.4900039      1.3653363      1.61659        5699.1639    
    165000   1.5449739      2315.1433      164.909        2480.0523      1.5342502      1.3293765      1.596611       5701.1264    
    166000   1.5241313      2283.9107      145.27139      2429.1821      1.5145128      1.2329382      1.4954837      5731.9741    
    167000   1.4704271      2203.435       194.04822      2397.4832      1.4747831      1.358104       1.6162076      5730.7806    
    168000   1.4947746      2239.9197      176.26162      2416.1814      1.4878725      1.329619       1.5893596      5701.755     
    169000   1.5295939      2292.0965      203.81085      2495.9074      1.5061433      1.5430715      1.8058212      5643.0743    
    170000   1.4815655      2220.1259      199.10669      2419.2326      1.4800206      1.5107948      1.7713551      5674.2232    
    171000   1.4697086      2202.3583      173.5689       2375.9272      1.4683263      1.3373         1.5946169      5700.9294    
    172000   1.5356256      2301.135       216.55539      2517.6904      1.5132538      1.5483371      1.8105338      5686.2065    
    173000   1.534457       2299.3838      207.56982      2506.9536      1.5346623      1.4209014      1.6886787      5731.8791    
    174000   1.4498913      2172.6621      168.13386      2340.796       1.4660259      1.3319471      1.5945784      5643.4423    
    175000   1.5070869      2258.3697      186.41402      2444.7837      1.5206089      1.4292236      1.7016037      5632.2672    
    176000   1.5126404      2266.6917      192.64132      2459.333       1.5307486      1.4195177      1.692365       5676.5776    
    177000   1.4786273      2215.723       178.4308       2394.1538      1.4721472      1.3970706      1.6558528      5663.7344    
    178000   1.5123348      2266.2336      199.93016      2466.1638      1.520706       1.4684515      1.7385811      5660.5005    
    179000   1.4749423      2210.201       195.19951      2405.4005      1.4927539      1.4274684      1.6924999      5699.5035    
    180000   1.4382018      2155.1454      238.98027      2394.1257      1.458293       1.5438142      1.8076979      5602.3331    
    181000   1.5096828      2262.2597      164.99587      2427.2556      1.5076536      1.3060018      1.5749682      5597.8245    
    182000   1.5371277      2303.3859      139.51381      2442.8997      1.4965107      1.245496       1.5071116      5565.1661    
    183000   1.518452       2275.4003      190.31333      2465.7136      1.4706157      1.4665405      1.7220034      5569.6033    
    184000   1.5725895      2356.5254      208.70349      2565.2289      1.5296179      1.5381013      1.8074803      5518.9516    
    185000   1.4907884      2233.9465      202.2936       2436.2401      1.486839       1.4710312      1.7375274      5564.4071    
    186000   1.4689201      2201.1768      194.74531      2395.9221      1.4929339      1.5207599      1.7948826      5533.7411    
    187000   1.4987382      2245.8592      214.05911      2459.9183      1.5411684      1.5624797      1.8443234      5618.5618    
    188000   1.4889318      2231.1642      200.13317      2431.2974      1.4848696      1.4510171      1.7149926      5609.655     
    189000   1.5109674      2264.1847      212.56677      2476.7515      1.4949121      1.5818749      1.8477831      5561.5913    
    190000   1.5119882      2265.7144      203.34248      2469.0569      1.521562       1.4699414      1.7414811      5638.6829    
    191000   1.5256951      2286.2542      179.85045      2466.1046      1.5298856      1.377553       1.6489748      5651.984     
    192000   1.4849278      2225.1643      233.52373      2458.6881      1.515224       1.5555647      1.8333817      5562.9786    
    193000   1.4625533      2191.6361      158.44718      2350.0833      1.4631346      1.3126291      1.5745623      5588.1244    
    194000   1.4802915      2218.2169      182.25632      2400.4732      1.5287305      1.4320302      1.716363       5546.744     
    195000   1.449127       2171.5169      171.87446      2343.3913      1.4745153      1.3387684      1.6058895      5614.9742    
    196000   1.4518284      2175.5648      207.28909      2382.8539      1.4826388      1.5319682      1.8018037      5608.6711    
    197000   1.4874261      2228.9081      176.98958      2405.8977      1.5215189      1.3701104      1.650477       5548.3683    
    198000   1.4886653      2230.7649      216.05387      2446.8188      1.4578349      1.5377102      1.7961243      5522.2805    
    199000   1.5211377      2279.4248      195.38876      2474.8136      1.497763       1.5879393      1.8529818      5562.9251    
    200000   1.6089515      2411.0138      201.34375      2612.3575      1.5426612      1.4808803      1.7442062      5606.8805    
    201000   1.5205241      2278.5053      146.22334      2424.7287      1.4996963      1.2626409      1.5259994      5615.4993    
    202000   1.4932924      2237.6987      211.16664      2448.8653      1.4912623      1.5171938      1.7860045      5540.0862    
    203000   1.5346015      2299.6003      184.17467      2483.775       1.5089731      1.4345371      1.7052727      5479.0357    
    204000   1.5351448      2300.4145      203.16039      2503.5749      1.5048037      1.5256417      1.7969398      5434.9559    
    205000   1.4981144      2244.9244      210.6488       2455.5732      1.4638899      1.5534189      1.8146032      5473.9123    
    206000   1.5045161      2254.5174      159.08868      2413.6061      1.5178704      1.3037903      1.5774159      5596.0097    
    207000   1.4635555      2193.138       216.89599      2410.034       1.4794876      1.587988       1.8597203      5503.2234    
    208000   1.4660189      2196.8294      220.32574      2417.1551      1.4673886      1.6890137      1.958802       5444.1097    
    209000   1.5109255      2264.1219      205.98246      2470.1043      1.5258891      1.5733225      1.8548117      5473.8796    
    210000   1.4934406      2237.9207      237.23289      2475.1536      1.5140579      1.760583       2.0405514      5481.527     
    211000   1.4927427      2236.8749      209.66791      2446.5428      1.5053738      1.5592859      1.834458       5516.5196    
    212000   1.5445582      2314.5205      189.38744      2503.9079      1.5219064      1.5118278      1.7843235      5502.0215    
    213000   1.4970107      2243.2706      177.48937      2420.7599      1.4771072      1.4482144      1.7098961      5568.6865    
    214000   1.6322219      2445.8845      209.46163      2655.3462      1.5355892      1.5531586      1.8170849      5452.4822    
    215000   1.577522       2363.9167      187.94251      2551.8592      1.4995507      1.498381       1.76165        5400.0169    
    216000   1.4676106      2199.2145      180.51253      2379.727       1.4923981      1.4490446      1.7298247      5403.3783    
    217000   1.5080634      2259.833       205.3085       2465.1415      1.5148793      1.5520399      1.8292174      5489.9428    
    218000   1.5090985      2261.3842      214.23048      2475.6146      1.5147082      1.6145171      1.8917343      5484.1924    
    219000   1.5205179      2278.4961      221.48147      2499.9776      1.4739821      1.7049168      1.9706717      5371.4621    
    220000   1.4926523      2236.7394      201.27054      2438.01        1.4980069      1.5725247      1.8497377      5423.1085    
    221000   1.5244085      2284.3261      187.63175      2471.9579      1.5369475      1.4765267      1.7577636      5509.498     
    222000   1.4334208      2147.9811      215.88472      2363.8658      1.4394664      1.6457987      1.9141172      5387.2767    
    223000   1.5024621      2251.4394      208.82503      2460.2644      1.5177817      1.6191144      1.9021499      5416.5859    
    224000   1.4518627      2175.6163      201.96294      2377.5792      1.4827475      1.5483795      1.8277989      5416.951     
    225000   1.4988327      2246.0008      198.97105      2444.9718      1.5238713      1.5977245      1.8850217      5391.2298    
    226000   1.5383992      2305.2912      197.33163      2502.6228      1.5106223      1.5856065      1.8613339      5378.0411    
    227000   1.4249254      2135.2508      243.70416      2378.9549      1.4351318      1.7368055      2.0056888      5375.2995    
    228000   1.52992        2292.5851      212.3588       2504.9439      1.5347449      1.6001733      1.885441       5396.9148    
    229000   1.4743048      2209.2457      235.47429      2444.72        1.4881146      1.7379421      2.0189626      5344.4886    
    230000   1.5229064      2282.0753      189.28998      2471.3653      1.5373619      1.4413403      1.7266494      5439.0224    
    231000   1.4972353      2243.6071      234.698        2478.3051      1.5229123      1.7372032      2.0236463      5406.1821    
    232000   1.4260599      2136.9507      200.36696      2337.3177      1.4616966      1.5282559      1.8019701      5470.2971    
    233000   1.502165       2250.9942      242.91375      2493.908       1.4961524      1.7279548      2.0004381      5468.7605    
    234000   1.5450235      2315.2177      246.07869      2561.2964      1.5195777      1.7670322      2.0461264      5353.5955    
    235000   1.5059084      2256.6038      193.39695      2450.0007      1.4868821      1.5508753      1.8217273      5419.4725    
    236000   1.4863405      2227.2812      220.37733      2447.6586      1.4792809      1.5981912      1.8726288      5364.5274    
    237000   1.5319688      2295.6552      200.70012      2496.3553      1.5355163      1.6311459      1.9188645      5349.1857    
    238000   1.5142425      2269.0924      183.18425      2452.2767      1.5451808      1.4409467      1.7318191      5418.4868    
    239000   1.52883        2290.9517      245.61057      2536.5623      1.518556       1.8456562      2.1258318      5383.381     
    240000   1.5261986      2287.0086      211.0933       2498.1019      1.5091056      1.6798257      1.9587616      5349.0053    
    241000   1.4602288      2188.1529      212.61173      2400.7646      1.4370111      1.682226       1.9473252      5333.1614    
    242000   1.5509057      2324.0322      205.19181      2529.224       1.5001758      1.5987066      1.8694698      5353.3739    
    243000   1.5754801      2360.8569      205.7182       2566.5751      1.540117       1.6101946      1.8902982      5372.2606    
    244000   1.4940297      2238.8035      204.92457      2443.7281      1.496225       1.6364426      1.9164737      5350.8997    
    245000   1.5163037      2272.1811      232.19377      2504.3749      1.5025014      1.7269919      2.0022694      5408.0422    
    246000   1.5580415      2334.7252      233.74037      2568.4656      1.5153456      1.7475196      2.0228276      5349.2542    
    247000   1.5224145      2281.3381      223.37797      2504.716       1.4765424      1.6852141      1.9565303      5273.2421    
    248000   1.4314364      2145.0074      200.34412      2345.3515      1.4229505      1.6531384      1.9212163      5276.3513    
    249000   1.5360023      2301.6994      173.26623      2474.9657      1.5277443      1.4358273      1.7176383      5391.8921    
    250000   1.5379317      2304.5907      206.21657      2510.8073      1.4999756      1.6240581      1.899209       5313.6561    
    251000   1.5139192      2268.6079      239.57938      2508.1873      1.5334787      1.7966289      2.0873106      5342.6782    
    252000   1.5023831      2251.3211      203.79278      2455.1138      1.5468628      1.709791       2.0098879      5302.6135    
    253000   1.5037541      2253.3755      223.46644      2476.842       1.5123352      1.8029999      2.0932844      5239.3684    
    254000   1.4419955      2160.8302      222.14213      2382.9723      1.4920325      1.7616997      2.0529833      5293.8775    
    255000   1.528663       2290.7015      227.74536      2518.4469      1.544693       1.7754977      2.0689124      5319.1169    
    256000   1.5217829      2280.3917      199.8498       2480.2415      1.5233554      1.6894441      1.9792975      5261.0251    
    257000   1.5317009      2295.2538      203.55616      2498.81        1.5238619      1.7100741      1.9962918      5296.7743    
    258000   1.4730618      2207.3832      225.28005      2432.6632      1.4752734      1.7915496      2.0706436      5293.8534    
    259000   1.4374837      2154.0693      181.02718      2335.0965      1.4725604      1.4203314      1.7031555      5330.529     
    260000   1.4322012      2146.1535      266.53471      2412.6882      1.4675858      1.9029322      2.1869478      5291.7343    
    261000   1.4792854      2216.7091      203.92551      2420.6347      1.4422067      1.6111619      1.8796053      5234.4942    
    262000   1.4878612      2229.56        236.77587      2466.3359      1.4800879      1.8409717      2.1235401      5210.4991    
    263000   1.5178427      2274.4873      188.79046      2463.2778      1.5178082      1.5072717      1.7894389      5378.9872    
    264000   1.4970892      2243.3882      259.62238      2503.0106      1.4989472      1.9600306      2.244513       5275.5589    
    265000   1.4910725      2234.3721      251.01053      2485.3826      1.4976093      1.8305098      2.1131279      5322.1647    
    266000   1.5050961      2255.3865      238.01813      2493.4046      1.5156548      1.7137217      2.0003183      5325.2649    
    267000   1.5011123      2249.4168      248.89264      2498.3094      1.4799768      1.8790965      2.1555176      5277.6801    
    268000   1.4817476      2220.3988      241.42301      2461.8218      1.5252109      1.8913055      2.186619       5311.7482    
    269000   1.4620349      2190.8593      189.66569      2380.525       1.4823015      1.5280074      1.8088914      5349.3531    
    270000   1.5368229      2302.9291      197.16654      2500.0957      1.5109829      1.6718483      1.9506281      5327.3895    
    271000   1.6103733      2413.1443      239.41702      2652.5613      1.55306        1.7185524      1.9987904      5337.6203    
    272000   1.567991       2349.6344      205.00726      2554.6417      1.5362763      1.7094238      1.9925613      5314.0006    
    273000   1.5665738      2347.5108      203.87077      2551.3816      1.5343741      1.7142439      1.9986466      5281.97      
    274000   1.6157495      2421.2007      239.06914      2660.2698      1.5647943      1.9000079      2.1900225      5220.0463    
    275000   1.4947244      2239.8445      191.80821      2431.6528      1.4743773      1.5823886      1.857761       5280.3072    
    276000   1.532559       2296.5396      219.03186      2515.5715      1.4731392      1.7440268      2.0137879      5240.8552    
    277000   1.4788491      2216.0554      244.92681      2460.9822      1.4441383      1.810339       2.0783968      5258.0534    
    278000   1.5378261      2304.4325      204.55089      2508.9833      1.4898793      1.7278314      2.0054548      5194.0182    
    279000   1.4756799      2211.3064      253.89079      2465.1972      1.4592018      1.9262684      2.2031028      5211.5625    
    280000   1.5729612      2357.0824      190.50051      2547.5829      1.515279       1.6225948      1.8997653      5259.0526    
    281000   1.5720402      2355.7022      231.45766      2587.1599      1.5447277      1.8513452      2.1420137      5220.5253    
    282000   1.450163       2173.0693      238.36405      2411.4334      1.4709182      1.8969789      2.1866113      5150.1594    
    283000   1.4891289      2231.4597      230.6046       2462.0643      1.5178477      1.7997868      2.0962293      5216.9902    
    284000   1.4486286      2170.7699      220.54395      2391.3138      1.4817631      1.7805299      2.0721397      5194.8335    
    285000   1.548252       2320.0556      203.49493      2523.5505      1.5345322      1.6556545      1.9500871      5165.2775    
    286000   1.5546175      2329.5943      209.02683      2538.6211      1.5333778      1.6947406      1.986454       5183.7163    
    287000   1.4157666      2121.5263      218.86307      2340.3893      1.4644805      1.6834147      1.971775       5247.4144    
    288000   1.5462596      2317.07        248.53333      2565.6033      1.5271256      1.9077046      2.199014       5176.6626    
    289000   1.4920919      2235.8998      245.03058      2480.9303      1.4969285      1.8678074      2.1581556      5172.2733    
    290000   1.521224       2279.5541      237.95308      2517.5072      1.4856046      1.8511992      2.1302252      5196.7234    
    291000   1.5441703      2313.9392      228.70048      2542.6397      1.5280248      1.8247716      2.1152283      5205.236     
    292000   1.4363296      2152.3399      228.7461       2381.086       1.4640174      1.7838572      2.0680679      5248.4908    
    293000   1.4496703      2172.3309      241.25432      2413.5853      1.4701748      1.8159093      2.1036069      5181.339     
    294000   1.5152401      2270.5873      242.81401      2513.4013      1.4913089      1.8854226      2.1696302      5163.1324    
    295000   1.5426149      2311.6084      241.59893      2553.2074      1.5414555      1.8707838      2.170267       5143.1852    
    296000   1.4941844      2239.0354      260.36724      2499.4026      1.527712       1.9825915      2.285575       5152.7744    
    297000   1.4212533      2129.748       231.34448      2361.0925      1.4453559      1.8217202      2.1053465      5180.8816    
    298000   1.5176137      2274.1441      213.32554      2487.4697      1.5047813      1.8215494      2.1108811      5156.5801    
    299000   1.4469196      2168.209       265.8161       2434.0251      1.4621263      1.9471969      2.2340701      5149.723     
    300000   1.5845509      2374.4496      215.45229      2589.9019      1.5520523      1.6960545      1.989179       5184.0989    
    301000   1.4653894      2195.886       258.9894       2454.8754      1.4703436      1.9977601      2.2825688      5179.9443    
    302000   1.5241548      2283.9459      230.86649      2514.8124      1.5348568      1.797711       2.095225       5194.8756    
    303000   1.4594648      2187.0081      250.50532      2437.5134      1.4686864      1.9710589      2.2562629      5181.9015    
    304000   1.5552626      2330.561       271.41725      2601.9782      1.5428494      2.0802432      2.3783187      5134.4326    
    305000   1.4809435      2219.1939      207.24877      2426.4426      1.4913057      1.7187017      2.0092855      5167.7263    
    306000   1.5955034      2390.8619      244.53425      2635.3961      1.5393598      1.9327427      2.2221015      5126.0671    
    307000   1.5520072      2325.6827      279.57004      2605.2528      1.503612       2.1756581      2.4610591      5099.0202    
    308000   1.5245295      2284.5074      210.87842      2495.3859      1.4925449      1.7421206      2.0261197      5142.9466    
    309000   1.5563333      2332.1654      182.62712      2514.7925      1.5128578      1.6058036      1.891834       5137.3068    
    310000   1.4839823      2223.7475      218.59587      2442.3434      1.4708984      1.7658457      2.050106       5128.4946    
    311000   1.4640498      2193.8786      247.11255      2440.9912      1.4792572      1.9829039      2.2768918      5083.3706    
    312000   1.4954103      2240.8723      288.60379      2529.4761      1.5164097      2.1400579      2.4429532      5075.6408    
    313000   1.5048814      2255.0648      201.48835      2456.5531      1.540553       1.6766049      1.9850279      5110.4792    
    314000   1.5129546      2267.1625      215.26925      2482.4317      1.4766112      1.713319       1.9939939      5131.5747    
    315000   1.4718614      2205.5843      240.24274      2445.827       1.4739581      1.9903206      2.2801099      5093.5373    
    316000   1.4814826      2220.0017      253.58883      2473.5906      1.5049942      1.9252966      2.2229292      5135.4672    
    317000   1.5073338      2258.7398      191.18364      2449.9234      1.5188995      1.6812136      1.9818857      5090.1081    
    318000   1.4945888      2239.6414      212.14912      2451.7905      1.521579       1.6964927      1.9985873      5126.0166    
    319000   1.4232147      2132.6872      211.19257      2343.8798      1.4530854      1.7774231      2.067363       5114.5992    
    320000   1.4575225      2184.0975      242.15039      2426.2478      1.4823899      1.9374218      2.2360109      5047.8484    
    321000   1.5303707      2293.2604      230.15267      2523.4131      1.5438204      1.8896272      2.200659       5006.7448    
    322000   1.4815936      2220.168       223.29118      2443.4592      1.489108       1.8753583      2.1714604      5054.3894    
    323000   1.4859196      2226.6505      263.01904      2489.6695      1.4989487      1.9899264      2.2906366      5027.9801    
    324000   1.4937173      2238.3354      258.05567      2496.3911      1.5196204      2.0249073      2.3308405      5051.7496    
    325000   1.4100003      2112.8855      212.40552      2325.291       1.4602166      1.865278       2.1653371      5033.6187    
    326000   1.4609048      2189.1659      248.92073      2438.0866      1.4809282      1.9598706      2.2573359      5045.7371    
    327000   1.5205345      2278.5209      258.85909      2537.38        1.5192998      2.0785937      2.3860352      4937.7409    
    328000   1.4302517      2143.2321      232.59363      2375.8258      1.4469152      1.9240439      2.2141909      5044.2096    
    329000   1.4587932      2186.0016      214.29877      2400.3004      1.4874496      1.8678897      2.1685123      5043.124     
    330000   1.5011403      2249.4587      246.04935      2495.5081      1.5180254      1.9716735      2.2769677      5027.59      
    331000   1.4545411      2179.6298      237.48141      2417.1112      1.4842333      1.9636409      2.2636558      5046.0677    
    332000   1.4709604      2204.2341      259.8609       2464.095       1.4840191      2.0984245      2.3949567      5048.5732    
    333000   1.4887551      2230.8996      255.06565      2485.9652      1.5072155      1.9631207      2.2625237      5095.6642    
    334000   1.5839532      2373.5539      236.97932      2610.5332      1.5458023      1.9129985      2.2115286      5050.3773    
    335000   1.4763213      2212.2675      237.37765      2449.6451      1.4724882      1.9013295      2.1944423      5010.5594    
    336000   1.5428148      2311.908       266.57112      2578.4791      1.5225825      2.0656328      2.3651918      5015.2747    
    337000   1.5385313      2305.4891      217.96498      2523.4541      1.5610953      1.824187       2.1390781      5029.1568    
    338000   1.4952688      2240.6603      240.06808      2480.7284      1.4853712      1.9227324      2.2175815      5004.1982    
    339000   1.5302168      2293.0298      262.13748      2555.1673      1.527945       2.0644564      2.3680137      5025.9891    
    340000   1.5285668      2290.5573      269.6464       2560.2037      1.4715963      2.0809528      2.3627143      5020.8524    
    341000   1.5473537      2318.7096      238.69435      2557.4039      1.4766795      2.0132049      2.2931521      5022.6458    
    342000   1.5536406      2328.1304      257.01997      2585.1504      1.5362121      2.0862959      2.3873923      5044.2347    
    343000   1.5434356      2312.8383      262.51946      2575.3577      1.5298217      2.1017871      2.4033071      5028.5919    
    344000   1.5273168      2288.6842      249.97479      2538.659       1.5121237      2.0907982      2.3880015      5036.7744    
    345000   1.4698499      2202.5701      246.32089      2448.891       1.4368864      1.9010335      2.1800869      5031.1371    
    346000   1.4864348      2227.4226      219.0106       2446.4332      1.4925869      1.8006144      2.1010362      4988.7617    
    347000   1.5153721      2270.7852      226.40646      2497.1916      1.5028242      1.9724332      2.2707208      4996.147     
    348000   1.4892366      2231.621       256.08569      2487.7067      1.5074678      2.107032       2.4151872      4951.0147    
    349000   1.4783209      2215.2638      267.90319      2483.167       1.510181       2.263824       2.577129       4921.7506    
    350000   1.435956       2151.7801      243.82018      2395.6003      1.4914425      2.0062931      2.315816       4997.6063    
    351000   1.4612256      2189.6466      240.53191      2430.1785      1.4930236      2.0524372      2.3583585      4984.2543    
    352000   1.5421023      2310.8403      274.07818      2584.9185      1.5452611      2.1503727      2.4638468      4939.5368    
    353000   1.4239966      2133.8589      264.92542      2398.7843      1.4781481      2.1114747      2.4189424      4983.4361    
    354000   1.4413767      2159.903       264.12745      2424.0305      1.4412375      2.1845131      2.4772541      4922.7775    
    355000   1.4809776      2219.2449      278.6714       2497.9163      1.4857207      2.2497316      2.5503347      4958.2289    
    356000   1.4821839      2221.0526      261.85986      2482.9125      1.4695353      2.1583294      2.4503969      4988.2285    
    357000   1.5004937      2248.4898      259.85707      2508.3469      1.5397605      2.0161288      2.3329162      4984.3771    
    358000   1.4863368      2227.2756      232.92781      2460.2034      1.4913133      1.9717746      2.2727771      4971.0052    
    359000   1.4720517      2205.8695      243.00605      2448.8756      1.5054012      2.0241691      2.3358391      4937.0084    
    360000   1.4972978      2243.7007      199.6575       2443.3582      1.4866012      1.7916458      2.0867892      5000.6734    
    361000   1.5515937      2325.0632      268.05439      2593.1176      1.5293378      2.1101724      2.4156812      4933.096     
    362000   1.5157962      2271.4206      308.00383      2579.4245      1.5047936      2.3518775      2.6545571      4935.2573    
    363000   1.5034519      2252.9226      244.95322      2497.8758      1.4893597      1.9743481      2.2672874      5036.1339    
    364000   1.512164       2265.9777      303.95465      2569.9324      1.4805104      2.3624536      2.6549613      4953.3352    
    365000   1.5127599      2266.8707      228.85844      2495.7292      1.495363       1.9364901      2.232338       4995.7543    
    366000   1.573348       2357.662       236.76538      2594.4274      1.5092371      2.0069625      2.2976751      4971.199     
    367000   1.5566481      2332.6371      251.40094      2584.0381      1.5364526      1.9945401      2.2986423      4986.0773    
    368000   1.5216167      2280.1426      210.59394      2490.7365      1.4919016      1.861387       2.1543775      4990.6597    
    369000   1.4592863      2186.7405      233.64437      2420.3849      1.492231       1.9997826      2.3073038      4959.4716    
    370000   1.5104333      2263.3843      247.53587      2510.9201      1.4772254      2.1043866      2.3945536      4976.6188    
    371000   1.4999853      2247.728       248.95432      2496.6823      1.4946041      2.0298736      2.3308801      4947.4961    
    372000   1.5397107      2307.2565      257.8699       2565.1264      1.516145       2.1176843      2.4224192      4898.0375    
    373000   1.5346653      2299.696       285.05773      2584.7537      1.5113088      2.2799015      2.5854928      4869.1682    
    374000   1.5248088      2284.926       254.08164      2539.0076      1.5121951      2.1136009      2.4187403      4914.4556    
    375000   1.5354483      2300.8693      259.99334      2560.8626      1.502527       2.194295       2.4930592      4919.0579    
    376000   1.5536913      2328.2064      237.74636      2565.9527      1.5202332      2.0326769      2.3337602      4938.1971    
    377000   1.4871776      2228.5356      227.90015      2456.4358      1.4694662      1.9338574      2.2282426      4931.5409    
    378000   1.5200709      2277.8262      259.60521      2537.4314      1.5066134      2.121217       2.4235972      4938.0527    
    379000   1.5604553      2338.3422      259.43427      2597.7765      1.5152946      2.1327664      2.4313039      4924.6045    
    380000   1.5202294      2278.0638      267.15744      2545.2213      1.4969865      2.0818176      2.3800252      4942.0827    
    381000   1.5000229      2247.7843      285.1765       2532.9608      1.498323       2.3659103      2.6703866      4915.4063    
    382000   1.5389371      2306.0973      282.08106      2588.1783      1.5616989      2.2082421      2.5298759      4926.2169    
    383000   1.5000071      2247.7606      236.01933      2483.78        1.4660668      2.0084091      2.2998818      4913.5331    
    384000   1.5109404      2264.1442      260.09325      2524.2375      1.4740122      2.1505058      2.4463418      4857.831     
    385000   1.5206131      2278.6387      279.16122      2557.7999      1.508927       2.2655294      2.5719776      4885.8263    
    386000   1.4343268      2149.3388      283.97545      2433.3142      1.4895025      2.2840191      2.5970964      4933.6805    
    387000   1.5025021      2251.4994      281.03339      2532.5328      1.5341067      2.2802413      2.5996812      4901.3278    
    388000   1.5050996      2255.3917      238.59044      2493.9822      1.5184641      2.0453276      2.36028        4863.6406    
    389000   1.5136942      2268.2707      235.52317      2503.7939      1.5002957      2.0600495      2.3627775      4911.7048    
    390000   1.4309963      2144.348       275.76958      2420.1176      1.464546       2.1254926      2.430533       4911.0278    
    391000   1.5084157      2260.3609      275.04509      2535.406       1.4743922      2.2955025      2.5918488      4860.5386    
    392000   1.6065101      2407.3553      268.80845      2676.1638      1.572317       2.2410677      2.557341       4863.3838    
    393000   1.530838       2293.9608      242.245        2536.2058      1.5058911      2.0614915      2.3646309      4885.4382    
    394000   1.5446278      2314.6247      244.16464      2558.7894      1.4748428      2.055197       2.3440453      4864.5861    
    395000   1.5498352      2322.4281      258.25581      2580.6839      1.5122057      2.196797       2.5001786      4860.5902    
    396000   1.436167       2152.0962      279.3483       2431.4445      1.468299       2.1687622      2.4761995      4880.3418    
    397000   1.53706        2303.2845      301.17911      2604.4636      1.5408284      2.4244537      2.7445943      4824.7335    
    398000   1.4316919      2145.3904      295.60813      2440.9985      1.4688443      2.4246991      2.7348654      4855.3293    
    399000   1.5004919      2248.487       255.67492      2504.162       1.515141       2.1509108      2.4678885      4826.1308    
    400000   1.4755659      2211.1355      236.7019       2447.8374      1.5341577      1.9684492      2.2937336      4896.3027    
    401000   1.4752693      2210.691       253.52733      2464.2184      1.5016965      2.1285339      2.4400858      4904.7928    
    402000   1.4737002      2208.3398      332.2042       2540.544       1.4798243      2.5616845      2.8662302      4879.2093    
    403000   1.4528356      2177.0741      288.42953      2465.5037      1.4796133      2.3424547      2.651677       4871.4603    
    404000   1.5035597      2253.0842      253.33593      2506.4201      1.5428779      2.1010278      2.4264894      4861.2701    
    405000   1.3942026      2089.2126      290.26761      2379.4802      1.4623011      2.2941659      2.6087837      4864.0972    
    406000   1.5290866      2291.3363      256.18732      2547.5237      1.5315699      2.1826651      2.5006178      4824.7771    
    407000   1.4641673      2194.0547      296.97767      2491.0324      1.4621081      2.2981063      2.6021309      4802.411     
    408000   1.4709539      2204.2244      277.25139      2481.4758      1.4996415      2.3715663      2.6877314      4833.8681    
    409000   1.4584109      2185.4287      272.94737      2458.3761      1.4863769      2.116286       2.4266162      4879.6898    
    410000   1.5324416      2296.3638      253.50886      2549.8727      1.5263037      2.1670591      2.4802368      4854.0242    
    411000   1.4529222      2177.2039      304.21464      2481.4185      1.470326       2.4126187      2.7197236      4844.3141    
    412000   1.5061706      2256.9966      275.14029      2532.1369      1.4963407      2.3297854      2.6372073      4835.4413    
    413000   1.5651124      2345.3209      302.8781       2648.199       1.5423359      2.4176993      2.7312409      4846.509     
    414000   1.5369851      2303.1722      259.45262      2562.6248      1.5012934      2.1552621      2.4579598      4841.9172    
    415000   1.5016895      2250.2818      321.68485      2571.9666      1.4653035      2.5365245      2.8307123      4857.2837    
    416000   1.5548772      2329.9835      250.11507      2580.0986      1.5436123      2.2608116      2.5779279      4832.1661    
    417000   1.5813085      2369.5908      286.88696      2656.4778      1.5473036      2.3366045      2.6506084      4819.4714    
    418000   1.5419595      2310.6264      272.51629      2583.1427      1.494049       2.2808125      2.5845683      4761.0158    
    419000   1.4849657      2225.2211      229.18056      2454.4017      1.4769416      2.0222404      2.3257459      4839.8648    
    420000   1.4757992      2211.4852      246.2982       2457.7834      1.4672501      2.1332692      2.4356304      4824.3932    
    421000   1.5762575      2362.0219      264.46846      2626.4904      1.5356382      2.1914747      2.4997484      4849.7794    
    422000   1.5457738      2316.3421      285.61704      2601.9592      1.515067       2.3262812      2.632407       4848.9577    
    423000   1.5036467      2253.2146      266.90489      2520.1195      1.4880985      2.2268774      2.5300042      4857.9205    
    424000   1.5052117      2255.5597      238.90819      2494.4679      1.5151603      2.1254565      2.4431844      4800.0164    
    425000   1.4992281      2246.5933      259.10883      2505.7021      1.5001436      2.1827793      2.4941945      4820.1199    
    426000   1.4708376      2204.0501      300.89633      2504.9464      1.4472556      2.3770725      2.6750274      4778.2307    
    427000   1.5148389      2269.9862      281.42944      2551.4156      1.5186662      2.2602461      2.5778097      4794.2828    
    428000   1.481635       2220.2301      272.04332      2492.2734      1.5232654      2.3156502      2.6427317      4784.2937    
    429000   1.4255173      2136.1377      280.53126      2416.669       1.4452365      2.3125247      2.6181286      4793.5772    
    430000   1.5085433      2260.5521      311.56195      2572.1141      1.5009695      2.4974805      2.8091789      4791.1806    
    431000   1.5263011      2287.1622      302.23774      2589.3999      1.5096497      2.4282081      2.7396578      4793.7593    
    432000   1.5332895      2297.6343      247.90239      2545.5367      1.5654993      2.1619692      2.4956483      4788.0644    
    433000   1.452168       2176.0737      287.43755      2463.5113      1.4972873      2.3526112      2.6722793      4824.8837    
    434000   1.4791622      2216.5246      318.88476      2535.4093      1.4808149      2.5271513      2.8341274      4829.2563    
    435000   1.4230781      2132.4826      303.74002      2436.2226      1.435378       2.3962823      2.6961955      4826.9492    
    436000   1.4396688      2157.3437      266.56976      2423.9135      1.4745839      2.1709967      2.4817215      4857.88      
    437000   1.4474372      2168.9846      257.23351      2426.2181      1.5216559      2.1634486      2.4933891      4836.6311    
    438000   1.476469       2212.4889      287.20744      2499.6963      1.4700478      2.3519179      2.6606425      4740.9022    
    439000   1.5552236      2330.5025      314.37244      2644.875       1.5135736      2.5288107      2.8376076      4766.7758    
    440000   1.5998867      2397.4302      249.75303      2647.1832      1.571673       2.2055207      2.5273387      4796.1505    
    441000   1.5416672      2310.1882      296.46108      2606.6493      1.4764864      2.4518629      2.7504244      4727.2372    
    442000   1.5550836      2330.2927      324.79624      2655.0889      1.5439027      2.6307204      2.9520912      4769.3595    
    443000   1.5315518      2295.0304      263.44135      2558.4718      1.5339187      2.2574717      2.5791668      4775.5881    
    444000   1.4926753      2236.774       287.19111      2523.9651      1.526951       2.3678522      2.6965107      4750.1965    
    445000   1.511128       2264.4254      259.07776      2523.5031      1.4773782      2.2328429      2.5387524      4719.2453    
    446000   1.5091163      2261.4108      274.25053      2535.6613      1.4894076      2.3699853      2.6792672      4752.0352    
    447000   1.5222759      2281.1304      325.31014      2606.4405      1.5001577      2.6241713      2.9351359      4753.1504    
    448000   1.602245       2400.9641      267.15288      2668.117       1.5402211      2.2944274      2.6033043      4785.9174    
    449000   1.545124       2315.3683      306.82819      2622.1965      1.524608       2.4171859      2.732867       4764.6587    
    450000   1.5441626      2313.9277      316.5486       2630.4763      1.5628331      2.5258115      2.857167       4772.7743    
    451000   1.5574452      2333.8316      340.70024      2674.5318      1.517327       2.6388075      2.9482309      4774.2002    
    452000   1.511623       2265.167       284.14985      2549.3169      1.4699207      2.2959977      2.5957578      4764.6766    
    453000   1.5508623      2323.9672      246.53839      2570.5056      1.5522957      2.148358       2.4757694      4745.4892    
    454000   1.4138429      2118.6436      284.26744      2402.911       1.4686655      2.3599593      2.6811593      4742.943     
    455000   1.541256       2309.5722      306.91467      2616.4868      1.5490578      2.4421585      2.7708545      4736.4497    
    456000   1.5283979      2290.3043      308.44427      2598.7485      1.514565       2.3988065      2.715181       4743.5754    
    457000   1.4551409      2180.5287      270.91963      2451.4483      1.4514796      2.2930074      2.598245       4743.2615    
    458000   1.5283591      2290.2462      311.32601      2601.5722      1.5164642      2.4814983      2.7977585      4757.4146    
    459000   1.5222836      2281.142       322.89058      2604.0326      1.4878462      2.4836969      2.7892518      4756.7328    
    460000   1.4956034      2241.1616      314.6284       2555.79        1.5082324      2.5371114      2.8581228      4737.6777    
    461000   1.4679574      2199.7342      293.44238      2493.1766      1.4799286      2.4237662      2.7382925      4743.2841    
    462000   1.4780255      2214.8212      244.27855      2459.0998      1.4623291      2.1605985      2.46517        4749.7828    
    463000   1.4336246      2148.2865      305.38581      2453.6723      1.4946733      2.4899353      2.8175963      4747.7757    
    464000   1.5109442      2264.1499      302.43817      2566.5881      1.551217       2.3651971      2.7033009      4706.9851    
    465000   1.4938779      2238.576       289.58855      2528.1645      1.4992786      2.4380554      2.7558465      4734.7901    
    466000   1.4310205      2144.3842      284.31998      2428.7042      1.488886       2.3536374      2.6785459      4760.3985    
    467000   1.4972766      2243.6689      310.01959      2553.6885      1.4894514      2.5848849      2.9007225      4691.1264    
    468000   1.4918981      2235.6092      293.39732      2529.0066      1.4904212      2.4977216      2.8141851      4704.9526    
    469000   1.5081816      2260.0101      319.30187      2579.312       1.5137714      2.7015383      3.0255187      4689.6529    
    470000   1.5080573      2259.8238      294.80142      2554.6252      1.4561032      2.5007034      2.7986707      4712.6006    
    471000   1.5368218      2302.9274      288.9363       2591.8637      1.5470324      2.4668602      2.7982759      4698.7304    
    472000   1.5187684      2275.8744      315.5028       2591.3772      1.5017479      2.5552382      2.8731073      4670.9306    
    473000   1.502042       2250.81        295.4693       2546.2793      1.4721642      2.600988       2.9094743      4675.4625    
    474000   1.5912735      2384.5233      303.69955      2688.2229      1.5829565      2.5626152      2.8998995      4668.6079    
    475000   1.5266084      2287.6227      299.0117       2586.6344      1.5106556      2.5078036      2.8269136      4684.0241    
    476000   1.5025974      2251.6422      295.11466      2546.7568      1.4974558      2.3865368      2.7018669      4732.5621    
    477000   1.5236149      2283.137       277.87992      2561.0169      1.5212022      2.3919206      2.7160713      4685.4505    
    478000   1.4924987      2236.5093      299.34406      2535.8533      1.4973244      2.4017774      2.7216696      4695.7866    
    479000   1.4950879      2240.3892      295.21738      2535.6066      1.4898524      2.4677208      2.7855936      4670.4919    
    480000   1.5157885      2271.4091      276.20587      2547.6149      1.5137806      2.3869658      2.7107622      4668.9045    
    481000   1.5029327      2252.1446      349.50405      2601.6487      1.5184259      2.6661247      2.9950919      4662.7856    
    482000   1.5113478      2264.7547      302.55181      2567.3065      1.5257059      2.5812562      2.9119282      4657.333     
    483000   1.464929       2195.1961      280.85451      2476.0506      1.4987978      2.3810568      2.7088131      4676.1361    
    484000   1.4508322      2174.072       323.56297      2497.635       1.4891283      2.5669832      2.8933357      4680.1728    
    485000   1.5228456      2281.9841      274.90818      2556.8923      1.5110161      2.4434669      2.7660044      4648.1373    
    486000   1.4440117      2163.8515      283.3554       2447.2069      1.4674291      2.3631066      2.684421       4639.7641    
    487000   1.4847107      2224.8391      302.13982      2526.9789      1.4756813      2.587017       2.9024385      4649.8448    
    488000   1.5674411      2348.8106      334.4967       2683.3073      1.5347459      2.763187       3.0889257      4611.3143    
    489000   1.5245502      2284.5385      257.28319      2541.8217      1.5298298      2.3014057      2.6326722      4634.0454    
    490000   1.4548514      2180.0948      332.70266      2512.7975      1.4651208      2.6328605      2.9497461      4655.8765    
    491000   1.6436247      2462.9716      290.7336       2753.7052      1.5826159      2.4719819      2.7980187      4667.1659    
    492000   1.554224       2329.0046      302.37496      2631.3796      1.5179419      2.4858394      2.8044578      4650.3791    
    493000   1.5159217      2271.6087      303.81725      2575.426       1.4806756      2.6033628      2.912415       4677.0886    
    494000   1.5161986      2272.0235      267.27869      2539.3022      1.4861841      2.3579734      2.6704319      4660.4579    
    495000   1.4609779      2189.2753      319.02166      2508.297       1.4487247      2.5620882      2.8691654      4677.9233    
    496000   1.4271026      2138.5132      333.65099      2472.1642      1.5112033      2.6306313      2.9690556      4713.6676    
    497000   1.4653191      2195.7806      300.43922      2496.2198      1.4733248      2.5294494      2.8462217      4676.3011    
    498000   1.5634184      2342.7824      277.70037      2620.4828      1.5372144      2.4405859      2.7680696      4614.0819    
    499000   1.4729494      2207.2147      326.85871      2534.0734      1.4587569      2.7846889      3.0996272      4586.8621    
    500000   1.4703488      2203.3176      256.32912      2459.6468      1.5087499      2.2300134      2.5612111      4671.2658    
    501000   1.4930126      2237.2794      298.05032      2535.3297      1.5025276      2.5384217      2.8622048      4669.8953    
    502000   1.4515769      2175.188       306.22278      2481.4107      1.4509887      2.5833815      2.8971574      4622.41      
    503000   1.4973252      2243.7418      286.37081      2530.1126      1.510816       2.4435826      2.7713657      4650.3108    
    504000   1.5139412      2268.6409      298.98107      2567.6219      1.5257735      2.5585408      2.8883186      4662.5164    
    505000   1.4890091      2231.2802      290.13703      2521.4172      1.4668011      2.5442394      2.854295       4659.213     
    506000   1.5500852      2322.8027      291.78651      2614.5892      1.5234207      2.5647281      2.8876952      4634.4739    
    507000   1.5409268      2309.0788      286.27304      2595.3518      1.5185968      2.4930855      2.8163494      4628.6917    
    508000   1.467882       2199.6211      317.50958      2517.1307      1.4734287      2.5750374      2.8947448      4626.0111    
    509000   1.5283861      2290.2866      274.04581      2564.3324      1.5216074      2.5084968      2.8362162      4622.3549    
    510000   1.4960853      2241.8838      334.08584      2575.9696      1.5162873      2.7502726      3.083531       4610.4447    
    511000   1.4502735      2173.2348      321.11757      2494.3524      1.4565215      2.7208097      3.0363549      4635.6701    
    512000   1.5087878      2260.9185      306.90745      2567.826       1.4974391      2.5437556      2.8625142      4662.1538    
    513000   1.5400743      2307.8014      353.18435      2660.9858      1.5060164      2.8279227      3.1477958      4601.801     
    514000   1.5153844      2270.8036      321.28074      2592.0843      1.4774243      2.7980685      3.1127712      4574.1645    
    515000   1.487021       2228.3009      284.54332      2512.8442      1.463226       2.6385087      2.9522808      4587.581     
    516000   1.4934685      2237.9626      323.18179      2561.1444      1.5208668      2.7213543      3.0561308      4624.6904    
    517000   1.4668564      2198.0843      338.81861      2536.9029      1.4895089      2.8635046      3.1921517      4601.1023    
    518000   1.4692967      2201.7411      298.09937      2499.8405      1.5043186      2.5337129      2.8650446      4645.8136    
    519000   1.434328       2149.3405      312.50161      2461.8421      1.4307508      2.6534243      2.9638835      4596.988     
    520000   1.5495267      2321.9658      289.58408      2611.5498      1.5155445      2.4394098      2.760172       4618.9872    
    521000   1.5718184      2355.3698      362.31279      2717.6826      1.5468082      2.8643569      3.1998153      4536.5474    
    522000   1.5198566      2277.5051      309.45611      2586.9612      1.4946317      2.5689207      2.8884404      4598.8769    
    523000   1.5015764      2250.1123      320.61494      2570.7272      1.4985797      2.8140183      3.1411045      4572.4527    
    524000   1.5510243      2324.21        317.51515      2641.7251      1.505608       2.6976412      3.0158866      4588.3993    
    525000   1.5237973      2283.4103      304.76904      2588.1793      1.5086644      2.5759         2.900416       4602.3817    
    526000   1.468819       2201.0252      336.20247      2537.2277      1.4717048      2.7685779      3.091417       4567.5628    
    527000   1.5819041      2370.4833      332.79652      2703.2798      1.5561491      2.8759612      3.2123458      4549.6135    
    528000   1.5207743      2278.8803      308.62198      2587.5023      1.5143233      2.62011        2.9465981      4618.4791    
    529000   1.4869773      2228.2354      312.34644      2540.5819      1.4903353      2.6341559      2.9561515      4638.853     
    530000   1.5206901      2278.7541      346.85679      2625.6108      1.5004999      2.7957316      3.1174646      4601.1129    
    531000   1.4913991      2234.8615      332.67758      2567.5391      1.4595905      2.6846005      2.9943723      4609.2429    
    532000   1.5103364      2263.2391      305.28699      2568.5261      1.4888666      2.7446578      3.0652734      4576.877     
    533000   1.5641496      2343.8782      343.08248      2686.9607      1.5469727      2.8065126      3.1369645      4629.4566    
    534000   1.504904       2255.0986      270.75786      2525.8565      1.4722735      2.4719892      2.7852918      4595.1597    
    535000   1.5033776      2252.8114      302.09867      2554.91        1.4985403      2.5706449      2.8964033      4585.3244    
    536000   1.5938791      2388.4279      352.98156      2741.4094      1.5466895      2.9533366      3.2820153      4562.3501    
    537000   1.5206946      2278.7608      305.36728      2584.1281      1.5228206      2.5400353      2.8719983      4593.7186    
    538000   1.464683       2194.8275      298.17826      2493.0058      1.4734175      2.5604153      2.8825528      4600.9648    
    539000   1.543195       2312.4776      346.63571      2659.1133      1.4966543      2.9911574      3.310081       4547.0458    
    540000   1.5163554      2272.2586      301.08171      2573.3403      1.5396707      2.5351059      2.8758583      4586.7997    
    541000   1.4913053      2234.7211      315.45356      2550.1746      1.4601072      2.6685885      2.984195       4527.6005    
    542000   1.5192439      2276.587       303.6757       2580.2627      1.5164671      2.6287299      2.9612871      4551.6784    
    543000   1.4603409      2188.3208      360.39264      2548.7135      1.4529231      3.1192741      3.4417894      4481.9974    
    544000   1.4999255      2247.6384      323.4738       2571.1122      1.5473723      2.7781686      3.128709       4549.4663    
    545000   1.5424881      2311.4185      322.55912      2633.9776      1.5052814      2.7558215      3.0801155      4527.1017    
    546000   1.4450001      2165.3327      320.27994      2485.6126      1.4779593      2.7216133      3.054912       4533.1278    
    547000   1.4855006      2226.0227      359.62649      2585.6492      1.4953146      2.9025211      3.2361021      4512.0046    
    548000   1.5012552      2249.6309      300.00987      2549.6407      1.4698369      2.6613286      2.9776638      4547.2349    
    549000   1.4762751      2212.1982      328.5925       2540.7907      1.464906       2.6763021      2.997662       4523.1158    
    550000   1.4972657      2243.6526      292.11411      2535.7667      1.4879747      2.491898       2.814526       4583.2759    
    551000   1.4855087      2226.0348      326.62735      2552.6621      1.4447962      2.8543629      3.1618942      4565.7926    
    552000   1.4981947      2245.0447      297.61181      2542.6565      1.4822283      2.585474       2.9081566      4544.026     
    553000   1.5086105      2260.6528      348.18879      2608.8416      1.5088913      2.9685339      3.299549       4559.2234    
    554000   1.5183835      2275.2977      285.4588       2560.7565      1.5120907      2.5290922      2.8588916      4565.8176    
    555000   1.4433405      2162.8458      373.21911      2536.0649      1.4665405      2.9584532      3.2898288      4495.5556    
    556000   1.5044209      2254.3747      348.06977      2602.4444      1.51197        2.8888115      3.2237905      4536.1401    
    557000   1.4947537      2239.8884      284.51436      2524.4027      1.4853543      2.608696       2.9338041      4539.9188    
    558000   1.5017         2250.2974      354.31236      2604.6098      1.4840497      3.0441324      3.3692575      4510.3167    
    559000   1.5094305      2261.8816      328.12892      2590.0105      1.516282       2.822432       3.1596721      4516.4456    
    560000   1.4871624      2228.5129      313.47906      2541.9919      1.4771811      2.746973       3.0709671      4528.5083    
    561000   1.4884423      2230.4308      356.5712       2587.002       1.4807232      2.9267032      3.2497952      4559.1088    
    562000   1.4919259      2235.651       307.29765      2542.9486      1.5235357      2.6730369      3.0132161      4571.455     
    563000   1.4866497      2227.7445      306.44784      2534.1924      1.4847928      2.7130668      3.0404861      4529.1702    
    564000   1.5311368      2294.4084      313.13813      2607.5466      1.5024747      2.6453166      2.9696697      4543.9412    
    565000   1.4792407      2216.6421      373.01518      2589.6573      1.4653396      3.0270491      3.3469177      4537.6517    
    566000   1.5881639      2379.8636      296.4764       2676.34        1.542212       2.5297214      2.858503       4551.0637    
    567000   1.507438       2258.8958      353.51054      2612.4063      1.4794781      2.9531         3.2727309      4541.3203    
    568000   1.5373913      2303.7809      282.62914      2586.41        1.4862926      2.5351413      2.8500779      4557.2504    
    569000   1.5576054      2334.0716      351.29215      2685.3638      1.5167796      2.9526939      3.2786649      4527.9937    
    570000   1.565497       2345.8972      322.20668      2668.1039      1.5402651      2.7997263      3.1364703      4499.1416    
    571000   1.4867641      2227.9159      331.58743      2559.5034      1.4702596      2.8466824      3.1701881      4493.8051    
    572000   1.4979804      2244.7236      347.3574       2592.081       1.4948456      2.9528898      3.284907       4492.8824    
    573000   1.5017805      2250.4181      331.9475       2582.3656      1.4971001      2.7586636      3.0892036      4515.1085    
    574000   1.4589842      2186.2879      304.41948      2490.7073      1.4818868      2.6497096      2.9812446      4538.7862    
    575000   1.5173857      2273.8025      372.81662      2646.6192      1.5275167      3.1628057      3.5036732      4510.9534    
    576000   1.4816904      2220.3131      351.66548      2571.9786      1.4896775      2.8921163      3.2236895      4516.8197    
    577000   1.4431644      2162.5819      289.03094      2451.6128      1.4769321      2.541131       2.8776352      4489.2929    
    578000   1.5539955      2328.6622      352.32742      2680.9897      1.5291777      2.9684705      3.3045689      4476.0249    
    579000   1.4808087      2218.9918      366.53696      2585.5288      1.5269983      2.9888988      3.337325       4514.9928    
    580000   1.4833499      2222.7999      325.89657      2548.6965      1.4751814      2.6941581      3.019131       4514.2869    
    581000   1.5206302      2278.6643      346.26001      2624.9244      1.4870797      3.0727905      3.3990807      4454.8155    
    582000   1.4927135      2236.8312      280.12078      2516.952       1.4948017      2.4781531      2.8081266      4536.3879    
[...]
   5259000   1.5626795      2341.6752      1307.3467      3649.0219      1.5233456      19.587816      20.162836      2580.87      
   5260000   1.526699       2287.7584      1307.7068      3595.4652      1.5232367      19.237591      19.826453      2580.87      
   5261000   1.5005388      2248.5574      1317.7652      3566.3227      1.5198874      19.330298      19.926693      2580.87      
   5262000   1.5286054      2290.6152      1236.4775      3527.0927      1.547008       18.349751      18.956287      2580.87      
   5263000   1.5095761      2262.0998      1358.8781      3620.9778      1.5061933      19.790072      20.372361      2580.87      
   5264000   1.4939974      2238.7551      1344.3428      3583.0978      1.5110408      20.017251      20.609326      2580.87      
   5265000   1.5071447      2258.4563      1324.9311      3583.3874      1.517515       19.460479      20.052479      2580.87      
   5266000   1.510844       2263.9998      1370.3126      3634.3124      1.5024021      19.975091      20.553953      2580.87      
   5267000   1.5087111      2260.8036      1376.9242      3637.7278      1.5002008      19.550367      20.12835       2580.87      
   5268000   1.5298229      2292.4396      1414.3803      3706.82        1.487703       20.397023      20.957154      2580.87      
   5269000   1.4938232      2238.494       1348.383       3586.877       1.5097176      19.618052      20.209169      2580.87      
   5270000   1.4899759      2232.729       1374.7887      3607.5177      1.5009014      19.908381      20.494158      2580.87      
   5271000   1.5410396      2309.2479      1264.7248      3573.9727      1.537597       18.527747      19.122182      2580.87      
   5272000   1.5629576      2342.0919      1286.026       3628.1179      1.5304914      19.05242       19.632867      2580.87      
   5273000   1.4952871      2240.6877      1327.0565      3567.7443      1.5168153      19.067961      19.664009      2580.87      
   5274000   1.5521512      2325.8986      1298.5161      3624.4148      1.5263324      19.508215      20.089623      2580.87      
   5275000   1.499757       2247.3859      1266.3113      3513.6972      1.5370784      18.712621      19.322633      2580.87      
   5276000   1.4393215      2156.8233      1367.8943      3524.7176      1.5031942      19.619466      20.226626      2580.87      
   5277000   1.4965582      2242.5924      1328.0943      3570.6867      1.5164623      19.460169      20.055452      2580.87      
   5278000   1.5721931      2355.9314      1320.3063      3676.2377      1.5190317      19.429085      19.997081      2580.87      
   5279000   1.5192738      2276.6317      1323.921       3600.5527      1.5178212      19.418899      20.006441      2580.87      
   5280000   1.4660895      2196.9351      1304.6405      3501.5756      1.5242395      19.359275      19.972375      2580.87      
   5281000   1.5440019      2313.6868      1325.5153      3639.2021      1.5172798      19.62219       20.199741      2580.87      
   5282000   1.5153235      2270.7123      1302.0994      3572.8116      1.5250748      19.402949      19.997638      2580.87      
   5283000   1.5066576      2257.7264      1350.6851      3608.4115      1.5088695      19.435698      20.02119       2580.87      
   5284000   1.4894403      2231.9262      1326.4394      3558.3656      1.5169602      19.286235      19.884659      2580.87      
   5285000   1.4730497      2207.365       1346.192       3553.5569      1.5103901      19.865399      20.465077      2580.87      
   5286000   1.5000642      2247.8463      1318.0709      3565.9172      1.5197472      19.444316      20.040786      2580.87      
   5287000   1.515103       2270.3818      1264.9999      3535.3817      1.5374389      18.695084      19.299435      2580.87      
   5288000   1.5236528      2283.1937      1283.8316      3567.0253      1.5311477      19.245708      19.841877      2580.87      
   5289000   1.5348926      2300.0365      1315.4302      3615.4667      1.5206104      19.327117      19.910774      2580.87      
   5290000   1.5144995      2269.4775      1307.7009      3577.1784      1.5231857      19.409265      20.002811      2580.87      
   5291000   1.5753915      2360.7241      1291.7993      3652.5234      1.5284878      19.34224       19.916322      2580.87      
   5292000   1.5176798      2274.2431      1351.807       3626.0502      1.5084641      19.545925      20.126837      2580.87      
   5293000   1.5082939      2260.1783      1341.8292      3602.0076      1.5118011      19.594638      20.181768      2580.87      
   5294000   1.5270393      2288.2684      1273.9062      3562.1746      1.534457       18.718022      19.315443      2580.87      
   5295000   1.5246455      2284.6813      1328.7169      3613.3982      1.5161675      19.275156      19.859338      2580.87      
   5296000   1.5124641      2266.4274      1294.332       3560.7595      1.5276449      18.79387       19.391657      2580.87      
   5297000   1.4959658      2241.7047      1340.5091      3582.2138      1.5122549      19.585578      20.177831      2580.87      
   5298000   1.5267348      2287.8121      1294.0549      3581.8669      1.52775        18.9642        19.556545      2580.87      
   5299000   1.5037818      2253.417       1290.6629      3544.08        1.5288795      18.910843      19.512947      2580.87      
   5300000   1.4620213      2190.8389      1372.3196      3563.1585      1.5016447      20.505131      21.102305      2580.87      
   5301000   1.5395955      2307.0839      1296.2256      3603.3096      1.5270339      19.165867      19.752679      2580.87      
   5302000   1.5219306      2280.613       1288.4515      3569.0645      1.5296428      19.139055      19.734725      2580.87      
   5303000   1.508807       2260.9473      1310.2417      3571.189       1.5223761      19.416186      20.011308      2580.87      
   5304000   1.5172905      2273.6599      1339.7989      3613.4587      1.5125105      19.735725      20.319922      2580.87      
   5305000   1.4443193      2164.3125      1408.1257      3572.4382      1.4897292      20.533718      21.128515      2580.87      
   5306000   1.504888       2255.0746      1348.5222      3603.5969      1.5096129      19.859977      20.44673       2580.87      
   5307000   1.4928856      2237.0891      1334.305       3571.394       1.5143436      19.508305      20.103368      2580.87      
   5308000   1.51218        2266.0017      1301.5101      3567.5118      1.5252923      19.508436      20.104511      2580.87      
   5309000   1.4787984      2215.9794      1303.7839      3519.7633      1.5245476      19.750102      20.358521      2580.87      
   5310000   1.5363569      2302.2308      1337.5376      3639.7684      1.5132862      19.388658      19.966075      2580.87      
   5311000   1.4958588      2241.5445      1298.8764      3540.4209      1.5261646      19.50893       20.111998      2580.87      
   5312000   1.5488967      2321.0217      1315.1735      3636.1952      1.5207164      19.085636      19.663955      2580.87      
   5313000   1.4730957      2207.434       1391.879       3599.313       1.4951368      20.444528      21.032375      2580.87      
   5314000   1.5185001      2275.4723      1373.3411      3648.8134      1.5013193      19.745051      20.320111      2580.87      
   5315000   1.5642613      2344.0456      1259.8134      3603.859       1.5391805      19.204215      19.790888      2580.87      
   5316000   1.5093529      2261.7653      1282.0192      3543.7845      1.531757       18.908372      19.510549      2580.87      
   5317000   1.4998353      2247.5033      1405.0398      3652.5431      1.4907231      20.608858      21.182935      2580.87      
   5318000   1.5503462      2323.1937      1290.0325      3613.2262      1.5290674      19.157846      19.742071      2580.87      
   5319000   1.5700888      2352.7781      1276.7143      3629.4924      1.5335197      19.328712      19.908743      2580.87      
   5320000   1.5059469      2256.6614      1313.1607      3569.8221      1.5213639      19.594933      20.190378      2580.87      
   5321000   1.548587       2320.5576      1291.3763      3611.9339      1.5286178      19.128737      19.713295      2580.87      
   5322000   1.5253968      2285.8071      1409.9714      3695.7785      1.4890794      20.418143      20.981053      2580.87      
   5323000   1.5412869      2309.6184      1277.1014      3586.7198      1.5333778      18.742042      19.333112      2580.87      
   5324000   1.4877562      2229.4027      1379.9342      3609.3369      1.4990885      19.699594      20.284826      2580.87      
   5325000   1.5040632      2253.8387      1321.3985      3575.2372      1.5185958      19.441935      20.035965      2580.87      
   5326000   1.5241805      2283.9845      1362.9398      3646.9242      1.5047511      19.820019      20.395538      2580.87      
   5327000   1.5571774      2333.4303      1288.0566      3621.4869      1.5297403      19.214791      19.796893      2580.87      
   5328000   1.5461254      2316.8689      1279.56        3596.4289      1.5325625      19.104037      19.692603      2580.87      
   5329000   1.5122486      2266.1045      1327.9526      3594.0571      1.5164248      19.195162      19.784341      2580.87      
   5330000   1.5084848      2260.4645      1364.5582      3625.0228      1.5042394      19.895916      20.477115      2580.87      
   5331000   1.5329105      2297.0664      1362.7555      3659.8218      1.5048273      19.453826      20.026026      2580.87      
   5332000   1.5250834      2285.3374      1272.9383      3558.2757      1.5347835      18.906905      19.505336      2580.87      
   5333000   1.4604745      2188.521       1345.6266      3534.1476      1.5105402      19.585838      20.190501      2580.87      
   5334000   1.4836349      2223.2269      1288.0176      3511.2446      1.5297682      19.285652      19.896243      2580.87      
   5335000   1.5347455      2299.8161      1307.2973      3607.1134      1.5233543      19.708787      20.294626      2580.87      
   5336000   1.496801       2242.9563      1333.268       3576.2243      1.5146834      19.867527      20.461338      2580.87      
   5337000   1.46372        2193.3844      1342.6155      3536           1.5115682      19.474424      20.078626      2580.87      
   5338000   1.5238855      2283.5425      1340.6547      3624.1972      1.5122086      19.547019      20.128429      2580.87      
   5339000   1.5504919      2323.4122      1300.7241      3624.1363      1.5255042      19.134627      19.716036      2580.87      
   5340000   1.4654366      2195.9568      1363.909       3559.8658      1.5044424      19.66814       20.266159      2580.87      
   5341000   1.5253976      2285.8084      1279.6703      3565.4787      1.5325289      18.698269      19.294833      2580.87      
   5342000   1.4972683      2243.6566      1318.1571      3561.8136      1.5197114      19.078877      19.676401      2580.87      
   5343000   1.4995199      2247.0305      1315.2508      3562.2814      1.5206873      19.723287      20.320696      2580.87      
   5344000   1.5229082      2282.0779      1327.4965      3609.5744      1.5165957      19.981723      20.56691       2580.87      
   5345000   1.4994486      2246.9237      1310.7087      3557.6324      1.5221969      19.352557      19.951163      2580.87      
   5346000   1.5392037      2306.4968      1381.3639      3687.8607      1.4986374      19.807095      20.372064      2580.87      
   5347000   1.5422549      2311.069       1267.6993      3578.7683      1.5365338      18.509247      19.102388      2580.87      
   5348000   1.4671178      2198.476       1358.4405      3556.9165      1.5062663      20.191442      20.790223      2580.87      
   5349000   1.4675392      2199.1074      1335.6385      3534.7459      1.5138704      19.505436      20.109943      2580.87      
   5350000   1.5444674      2314.3844      1383.2387      3697.6232      1.497978       20.404577      20.966998      2580.87      
   5351000   1.5307535      2293.8341      1365.2467      3659.0808      1.5039762      19.560152      20.132527      2580.87      
   5352000   1.5869306      2378.0154      1232.7324      3610.7478      1.5481669      18.655928      19.240786      2580.87      
   5353000   1.4996968      2247.2956      1385.0053      3632.3009      1.4973784      19.298972      19.878258      2580.87      
   5354000   1.4838344      2223.5258      1336.7396      3560.2654      1.5134714      19.491564      20.089455      2580.87      
   5355000   1.5198997      2277.5698      1293.1983      3570.7681      1.5280126      19.064804      19.659998      2580.87      
   5356000   1.4973939      2243.8448      1433.5864      3677.4312      1.4811694      20.103329      20.670952      2580.87      
   5357000   1.4836173      2223.2005      1301.3515      3524.552       1.5252888      18.6219        19.229028      2580.87      
   5358000   1.5562099      2331.9805      1365.2638      3697.2444      1.5039628      19.524479      20.08699       2580.87      
   5359000   1.5380822      2304.8161      1298.3141      3603.1302      1.5262903      19.10292       19.689742      2580.87      
   5360000   1.4892222      2231.5995      1379.6354      3611.2349      1.4991679      19.733193      20.317919      2580.87      
   5361000   1.5490396      2321.2359      1335.6151      3656.851       1.5138356      19.268978      19.841912      2580.87      
   5362000   1.5671597      2348.3888      1236.8848      3585.2736      1.5467657      18.588681      19.180107      2580.87      
   5363000   1.5429678      2312.1372      1281.4752      3593.6124      1.5318874      18.942665      19.531931      2580.87      
   5364000   1.5196079      2277.1324      1307.6063      3584.7387      1.5231775      19.304368      19.895929      2580.87      
   5365000   1.5470244      2318.216       1221.6442      3539.8603      1.5518416      18.562164      19.165315      2580.87      
   5366000   1.5296362      2292.1598      1313.4434      3605.6032      1.5212354      19.474471      20.060646      2580.87      
   5367000   1.5239486      2283.6369      1317.6518      3601.2887      1.5198201      19.434836      20.022117      2580.87      
   5368000   1.4940576      2238.8453      1330.703       3569.5483      1.5154728      19.76029       20.355774      2580.87      
   5369000   1.4852891      2225.7057      1358.2455      3583.9512      1.5062843      19.968944      20.560705      2580.87      
   5370000   1.4652675      2195.7033      1339.616       3535.3193      1.512492       19.356078      19.960397      2580.87      
   5371000   1.5065612      2257.5819      1312.9539      3570.5358      1.5213754      18.776911      19.372127      2580.87      
   5372000   1.5004741      2248.4604      1336.5747      3585.0351      1.5135059      19.870195      20.461672      2580.87      
   5373000   1.5281541      2289.9389      1331.7983      3621.7372      1.5150998      19.849673      20.43167       2580.87      
   5374000   1.5516037      2325.0782      1339.4032      3664.4814      1.5125632      19.944795      20.51575       2580.87      
   5375000   1.5390523      2306.2699      1257.6655      3563.9353      1.5398192      18.780122      19.377047      2580.87      
   5376000   1.4986255      2245.6903      1407.0921      3652.7824      1.4899968      20.121562      20.695546      2580.87      
   5377000   1.48818        2230.0378      1293.6745      3523.7122      1.5278151      18.987326      19.594644      2580.87      
   5378000   1.5554272      2330.8076      1273.8907      3604.6984      1.5344243      19.187692      19.7741        2580.87      
   5379000   1.5139533      2268.659       1298.7861      3567.4451      1.5261125      18.803199      19.399223      2580.87      
   5380000   1.5299118      2292.5728      1252.4884      3545.0613      1.5415421      18.130826      18.732623      2580.87      
   5381000   1.4889068      2231.1268      1321.0794      3552.2062      1.5186694      19.211745      19.811699      2580.87      
   5382000   1.4989026      2246.1056      1386.2579      3632.3634      1.496921       19.729543      20.308782      2580.87      
   5383000   1.4713256      2204.7814      1334.9243      3539.7057      1.5140396      19.22845       19.831623      2580.87      
   5384000   1.5283858      2290.2862      1321.3025      3611.5886      1.5185809      19.426979      20.011583      2580.87      
   5385000   1.5432256      2312.5236      1259.0402      3571.5638      1.5393453      18.783356      19.378299      2580.87      
   5386000   1.4807432      2218.8937      1422.4465      3641.3403      1.4848538      20.205205      20.782127      2580.87      
   5387000   1.5178988      2274.5713      1362.2789      3636.8502      1.5049181      19.538331      20.116412      2580.87      
   5388000   1.5725842      2356.5174      1223.1662      3579.6835      1.5513018      18.439296      19.032135      2580.87      
   5389000   1.4842915      2224.2109      1367.7445      3591.9554      1.5030781      19.566149      20.155813      2580.87      
   5390000   1.4703254      2203.2826      1379.2307      3582.5133      1.4992418      19.550428      20.142527      2580.87      
   5391000   1.4463078      2167.2922      1397.3918      3564.684       1.4931756      20.209988      20.806684      2580.87      
   5392000   1.5317767      2295.3675      1342.7942      3638.1617      1.5113779      19.792676      20.370388      2580.87      
   5393000   1.5301151      2292.8774      1327.8585      3620.7359      1.5163784      19.442803      20.025031      2580.87      
   5394000   1.5445889      2314.5664      1283.8125      3598.3789      1.5310782      19.022128      19.61014       2580.87      
   5395000   1.4862365      2227.1254      1392.6568      3619.7822      1.4947895      19.907738      20.490229      2580.87      
   5396000   1.5010432      2249.3133      1401.7682      3651.0815      1.491762       20.189917      20.764332      2580.87      
   5397000   1.519808       2277.4322      1369.8162      3647.2484      1.5024104      19.39303       19.968429      2580.87      
   5398000   1.4603763      2188.3739      1376.4335      3564.8074      1.5002044      19.690983      20.287678      2580.87      
   5399000   1.5545136      2329.4386      1334.8292      3664.2678      1.5140756      19.186132      19.757132      2580.87      
   5400000   1.4923502      2236.2868      1303.6983      3539.9851      1.5244724      19.002099      19.605215      2580.87      
Loop time of 22913.2 on 64 procs for 200000 steps with 1000 atoms

Performance: 75.415 tau/day, 8.729 timesteps/s, 8.729 katom-step/s
99.6% CPU use with 64 MPI tasks x 1 OpenMP threads

MPI task timing breakdown:
Section |  min time  |  avg time  |  max time  |%varavg| %total
---------------------------------------------------------------
Pair    | 11463      | 17761      | 22030      |1768.2 | 77.51
Neigh   | 0.00049952 | 0.00069505 | 0.00090188 |   0.0 |  0.00
Comm    | 878.08     | 5145.8     | 11440      |3283.3 | 22.46
Output  | 0.15545    | 0.59564    | 1.6176     |  37.2 |  0.00
Modify  | 0.33273    | 0.42488    | 0.51736    |   5.6 |  0.00
Other   |            | 5.462      |            |       |  0.02

Nlocal:         15.625 ave          19 max          11 min
Histogram: 2 1 3 9 0 15 15 9 7 3
Nghost:        201.375 ave         209 max         185 min
Histogram: 2 0 1 3 4 11 8 14 11 10
Neighs:        147.406 ave         182 max          92 min
Histogram: 3 0 3 3 6 16 8 10 8 7

Total # of neighbors = 9434
Ave neighs/atom = 9.434
Neighbor list builds = 44
Dangerous builds = 0
Total wall time: 129:10:17
