LAMMPS data file for polygons
4 atoms
4 bodies
1 atom types
0 6 xlo xhi
0 6 ylo yhi
-0.5 0.5 zlo zhi

Atoms

1 1 1 1 1 1 0
2 1 1 1 4 4 0
3 1 1 1 1 4 0
4 1 1 1 4 1 0

Bodies

1 1 16
3
20 20 0.19245 0 0 0
0.87738268 0 0   
-0.43869134 0.75983569 0 
-0.43869134 -0.75983569 0 
0.3
2 1 16
3
20 20 0.19245 0 0 0
0.87738268 0 0   
-0.43869134 0.75983569 0 
-0.43869134 -0.75983569 0 
0.3
3 1 16
3
20 20 0.19245 0 0 0
0.87738268 0 0   
-0.43869134 0.75983569 0 
-0.43869134 -0.75983569 0 
0.3
4 1 16
3
20 20 0.19245 0 0 0
0.87738268 0 0   
-0.43869134 0.75983569 0 
-0.43869134 -0.75983569 0 
0.3