LAMMPS (2 Aug 2023 - Update 1)
OMP_NUM_THREADS environment is not set. Defaulting to 1 thread. (src/comm.cpp:98)
  using 1 OpenMP thread(s) per MPI task
# 2d rounded polygon bodies

variable    r     index 7
variable    steps index 200000
variable    T     index 1
variable    P     index 0.1

include ./seed.lammps
variable    seed  index 3241

units       lj
dimension   2

atom_style  body rounded/polygon 1 6
atom_modify map array
read_data   data.squares
Reading data file ...
  orthogonal box = (0 0 -0.5) to (6 6 0.5)
  2 by 2 by 1 MPI processor grid
  reading atoms ...
  4 atoms
  4 bodies
  read_data CPU = 0.002 seconds

replicate   $r $r 1
replicate   7 $r 1
replicate   7 7 1
Replication is creating a 7x7x1 = 49 times larger system...
  orthogonal box = (0 0 -0.5) to (42 42 0.5)
  2 by 2 by 1 MPI processor grid
  196 atoms
  replicate CPU = 0.001 seconds
change_box all x final -21.0 21.0 y final -21.0 21.0
Changing box ...
  orthogonal box = (-21 0 -0.5) to (21 42 0.5)
  orthogonal box = (-21 -21 -0.5) to (21 21 0.5)

variable cut_inner  equal 0.0
variable k_n        equal 300
variable k_na       equal 0
variable c_n        equal 0
variable c_t        equal 0
variable mu         equal 0.0
variable delta_ua   equal 1.0

pair_style body/rounded/polygon ${c_n} ${c_t} ${mu} ${delta_ua} ${cut_inner}
pair_style body/rounded/polygon 0 ${c_t} ${mu} ${delta_ua} ${cut_inner}
pair_style body/rounded/polygon 0 0 ${mu} ${delta_ua} ${cut_inner}
pair_style body/rounded/polygon 0 0 0 ${delta_ua} ${cut_inner}
pair_style body/rounded/polygon 0 0 0 1 ${cut_inner}
pair_style body/rounded/polygon 0 0 0 1 0
pair_coeff * * ${k_n} ${k_na}
pair_coeff * * 300 ${k_na}
pair_coeff * * 300 0

comm_modify vel yes cutoff 12

neighbor     1.2 bin
neigh_modify every 1 delay 0 check yes

timestep     0.0001

fix          2 all enforce2d

# minimize 0.0 0 1000 100000

compute 10 all property/atom x y z quatw quati quatj quatk
dump mydump0 all custom 100 dump.quat id type c_10[1] c_10[2] c_10[3] c_10[4] c_10[5] c_10[6] c_10[7]
compute myRDF all rdf 1000 cutoff 10.0
compute 1 all temp/body
compute 1p all pressure 1
velocity    all create $T ${seed} dist gaussian mom yes rot yes
velocity    all create 1 ${seed} dist gaussian mom yes rot yes
velocity    all create 1 3241 dist gaussian mom yes rot yes

thermo_style custom step temp ke pe etotal c_1 press c_1p vol
thermo       100
thermo_modify norm no


fix          1 all npt/body temp $T $T 0.01 x 1 1 0.1 y 1 1 0.1 couple xy
fix          1 all npt/body temp 1 $T 0.01 x 1 1 0.1 y 1 1 0.1 couple xy
fix          1 all npt/body temp 1 1 0.01 x 1 1 0.1 y 1 1 0.1 couple xy
run          ${steps}
run          200000
Generated 0 of 0 mixed pair_coeff terms from geometric mixing rule
Neighbor list info ...
  update: every = 1 steps, delay = 0 steps, check = yes
  max neighbors/atom: 2000, page size: 100000
  master list distance cutoff = 2.9547654
  ghost atom cutoff = 12
  binsize = 1.4773827, bins = 29 29 1
  2 neighbor lists, perpetual/occasional/extra = 1 1 0
  (1) pair body/rounded/polygon, perpetual
      attributes: half, newton on
      pair build: half/bin/atomonly/newton
      stencil: half/bin/2d
      bin: standard
  (2) compute rdf, occasional
      attributes: half, newton on, cut 11.2
      pair build: half/bin/atomonly/newton
      stencil: half/bin/2d
      bin: standard
Per MPI rank memory allocation (min/avg/max) = 6.108 | 6.108 | 6.108 Mbytes
   Step          Temp          KinEng         PotEng         TotEng          c_1           Press           c_1p          Volume    
         0   1              195            0              195            0.66552901     0.11054422     0.11054422     1764         
       100   1.2943016      252.38881      0              252.38881      0.86139527     0.15408526     0.15408526     1637.9816    
       200   1.6593159      323.5666       0              323.5666       1.1043229      0.22370842     0.22370842     1446.3765    
       300   1.6970647      330.92761      0              330.92761      1.1294458      0.25370018     0.25370018     1304.4043    
       400   1.562152       304.61964      0              304.61964      1.0396575      0.25696501     0.25696501     1185.4518    
       500   1.4981858      292.14623      0              292.14623      0.9970861      0.26718212     0.26718212     1093.4348    
       600   1.4823911      289.06626      0              289.06626      0.98657426     0.28421012     0.28421012     1017.0864    
       700   1.4951551      291.55525      0              291.55525      0.99506911     0.3065361      0.3065361      951.12861    
       800   1.4901989      290.58879      0              290.58879      0.9917706      0.32519911     0.32519911     893.5719     
       900   1.4467095      282.10836      0.99438945     283.10275      0.96287452     0.37723029     0.37724675     842.85874    
      1000   1.3993919      272.88143      7.9286932      280.81012      0.93370764     0.56972679     0.5705958      799.65254    
      1100   1.3733168      267.79678      25.399261      293.19604      0.93187412     1.1294754      1.1362829      770.07866    
      1200   1.4819285      288.97605      28.349491      317.32554      1.051155       1.3226903      1.3475884      763.60666    
      1300   1.4643408      285.54646      13.148041      298.6945       1.0891533      1.0048396      1.0482584      773.29276    
      1400   1.2613192      245.95724      7.772023       253.72926      0.96289786     0.69960834     0.74600319     779.65195    
      1500   1.2208464      238.06506      14.106411      252.17147      0.94359689     0.83621689     0.88589432     773.16464    
      1600   1.2679224      247.24487      24.582529      271.8274       0.99464263     1.0975868      1.1553393      765.08183    
      1700   1.2659577      246.86175      27.054543      273.91629      1.015244       1.0979685      1.1639664      766.76247    
      1800   1.2184394      237.59569      23.128191      260.72388      0.99916317     0.91783833     0.98901531     774.95736    
      1900   1.185125       231.09937      23.026782      254.12615      0.98614294     0.83756115     0.91171597     779.99666    
      2000   1.1746741      229.06145      26.444081      255.50553      0.98872869     0.95169517     1.0294258      780.07974    
      2100   1.1643156      227.04154      28.586013      255.62756      0.99272457     1.0469646      1.1285986      781.86529    
      2200   1.154332       225.09473      27.66213       252.75686      0.99121136     1.0419727      1.1247032      789.67482    
      2300   1.1913387      232.31105      25.596856      257.90791      1.0229387      0.96487449     1.048964       801.64571    
      2400   1.3442126      262.12145      23.204985      285.32644      1.1539673      0.93304398     1.0264646      813.42792    
      2500   1.2066561      235.29793      21.338636      256.63657      1.0373566      0.8606222      0.94403609     822.97515    
      2600   1.1171813      217.85036      21.676147      239.5265       0.96415529     0.84977644     0.92795453     826.92147    
      2700   1.1328568      220.90707      23.101982      244.00905      0.98784671     0.90953071     0.99249082     826.08386    
      2800   1.1796671      230.03509      22.735541      252.77063      1.0465304      0.92612603     1.0189738      824.9884     
      2900   1.1536785      224.96731      21.159924      246.12724      1.040807       0.87433664     0.97129902     824.95032    
      3000   0.99746889     194.50643      20.950864      215.4573       0.91203107     0.84454718     0.93288158     823.22036    
      3100   1.0160405      198.12789      22.547326      220.67522      0.93977766     0.88661059     0.98097595     818.38256    
      3200   1.1267286      219.71208      25.19189       244.90397      1.0492921      0.96045878     1.0682516      813.8807     
      3300   1.1050465      215.48407      26.175211      241.65929      1.0360749      0.97302531     1.0812058      814.249      
      3400   1.0414459      203.08195      24.149499      227.23144      0.98624192     0.87703053     0.98191129     818.90086    
      3500   1.0258091      200.03278      22.713828      222.74661      0.98177037     0.81006165     0.91668313     821.84138    
      3600   1.0418581      203.16232      24.090849      227.25317      1.0041354      0.84596612     0.95703611     819.74754    
      3700   1.042037       203.19722      26.860444      230.05766      1.0117854      0.91410075     1.028417       815.7714     
      3800   1.0246114      199.79923      27.413939      227.21317      1.0060164      0.92630295     1.0429407      814.17561    
      3900   1.004668       195.91026      26.409754      222.32001      0.99625771     0.90659985     1.0242974      815.5929     
      4000   0.99559478     194.14098      24.525687      218.66667      0.99409153     0.8352053      0.95392337     818.1386     
      4100   1.0184341      198.59464      23.541608      222.13625      1.0195284      0.80340152     0.92584252     817.75847    
      4200   1.0496723      204.68611      23.665789      228.3519       1.0523168      0.81899934     0.94646883     813.07864    
      4300   0.98612136     192.29366      24.157625      216.45129      0.99079992     0.8400721      0.9616803      805.95482    
      4400   0.93408425     182.14643      24.738635      206.88506      0.93998456     0.8262443      0.94320388     797.4468     
      4500   0.99593598     194.20752      24.957532      219.16505      1.0026232      0.88333113     1.0097845      787.33465    
      4600   1.1300971      220.36894      25.481497      245.85044      1.1352651      0.98748588     1.1314594      779.75257    
      4700   1.0317915      201.19935      25.170893      226.37024      1.0310876      0.97086784     1.1001783      780.36453    
      4800   0.92929871     181.21325      21.911657      203.1249       0.92822505     0.82602867     0.94148254     786.0862     
      4900   0.99012707     193.07478      18.227331      211.30211      0.99526513     0.76071475     0.8857367      788.16489    
      5000   1.0610052      206.89601      17.600742      224.49675      1.072288       0.82029604     0.95712622     784.06939    
      5100   0.98800926     192.6618       20.758702      213.42051      0.99986547     0.89365578     1.0225593      778.09188    
      5200   0.89310178     174.15485      24.430695      198.58554      0.90018804     0.94865408     1.0644185      773.98808    
      5300   0.94622193     184.51328      26.030832      210.54411      0.94446415     0.98066767     1.0997762      774.2077     
      5400   1.0040756      195.79475      23.977381      219.77213      0.99288746     0.94168959     1.0636204      780.12478    
      5500   1.0443083      203.64012      20.443715      224.08383      1.0230341      0.84006375     0.96189285     788.88282    
      5600   1.0506878      204.88413      16.879967      221.76409      1.0239959      0.76192057     0.88164656     794.70368    
      5700   0.97550053     190.2226       15.656677      205.87928      0.94750274     0.74936906     0.85954557     793.23351    
      5800   0.93581613     182.48415      18.42459       200.90874      0.90572652     0.8202045      0.92595083     783.89228    
      5900   1.0705704      208.76122      21.858421      230.61964      1.0409155      0.98007811     1.1047573      771.79711    
      6000   1.1118179      216.80448      21.025427      237.82991      1.0963938      0.97301111     1.1093479      766.03621    
      6100   1.0165674      198.23064      19.925789      218.15642      1.0131472      0.85119721     0.97988066     766.3884     
      6200   0.97496905     190.11897      21.922466      212.04143      0.97690445     0.83086716     0.95627435     766.41572    
      6300   0.986361       192.3404       23.88377       216.22417      0.99474267     0.86044893     0.99012504     764.35983    
      6400   1.0404508      202.8879       25.649396      228.53729      1.0527407      0.93940228     1.0778678      762.3926     
      6500   1.0857757      211.72626      23.775515      235.50178      1.0957661      0.92102991     1.0640053      764.69943    
      6600   0.96566985     188.30562      18.253036      206.55866      0.97149253     0.79278568     0.91791909     769.91185    
      6700   0.92738513     180.8401       15.425749      196.26585      0.93197976     0.72095519     0.84066008     770.4779     
      6800   1.0112916      197.20186      20.297345      217.4992       1.0107382      0.80134851     0.93109389     762.60462    
      6900   1.0734017      209.31333      32.741351      242.05468      1.0609476      1.0136878      1.1486927      752.15276    
      7000   0.98704489     192.47375      37.699322      230.17308      0.975375       1.0549415      1.1793793      749.8615     
      7100   0.84589954     164.95041      28.731776      193.68219      0.85151124     0.85190941     0.96367272     756.44132    
      7200   0.9272246      180.8088       20.057227      200.86602      0.95078905     0.73087478     0.85926776     761.50889    
      7300   1.0032832      195.64022      19.097046      214.73727      1.0336638      0.77920457     0.92043877     759.18774    
      7400   0.99881628     194.76917      23.453266      218.22244      1.0293592      0.88332064     1.0252724      752.60114    
      7500   0.91990129     179.38075      27.783063      207.16381      0.94744719     0.92384963     1.0552941      747.24565    
      7600   0.87638404     170.89489      29.574449      200.46934      0.89784462     0.92598313     1.0497057      745.00192    
      7700   1.0317166      201.18475      26.555978      227.74072      1.0525299      0.92171904     1.0654548      745.85838    
      7800   1.0646207      207.60104      19.958651      227.55969      1.0895064      0.85398917     1.002783       750.1947     
      7900   0.9528664      185.80895      17.169064      202.97801      0.97512883     0.78436407     0.91672108     754.80547    
      8000   0.92864843     181.08644      19.396196      200.48264      0.94421862     0.81755708     0.94408328     755.33452    
      8100   1.0021598      195.42115      22.061588      217.48274      1.0139394      0.91364065     1.0486405      753.06069    
      8200   1.052166       205.17236      23.405709      228.57807      1.061103       0.95711859     1.097475       753.30248    
      8300   0.91648334     178.71425      23.647406      202.36166      0.91976073     0.88896943     1.0086257      758.63707    
      8400   0.84846334     165.45035      23.075785      188.52614      0.84852479     0.86701411     0.97569267     765.26049    
      8500   0.97083363     189.31256      23.95073       213.26329      0.96417489     0.88597226     1.0068085      771.2146     
      8600   1.0394775      202.69812      24.767753      227.46587      1.0232483      0.87481127     0.99967371     777.76507    
      8700   1.0493453      204.62233      25.657509      230.27984      1.0232549      0.86249855     0.98378756     784.83085    
      8800   1.0146123      197.84941      24.305304      222.15471      0.98533252     0.83298804     0.94778462     791.4262     
      8900   0.97576934     190.27502      22.176881      212.4519       0.94975294     0.77368482     0.88438447     794.96723    
      9000   1.0282168      200.50227      22.618847      223.12112      1.0004338      0.81923982     0.93618838     792.01351    
      9100   1.1341063      221.15072      25.076894      246.22762      1.0965408      0.93118783     1.058752       784.9833     
      9200   1.0606416      206.82512      25.558213      232.38333      1.0157989      0.95138184     1.0677145      780.55457    
      9300   0.98983617     193.01805      21.92793       214.94598      0.94250932     0.87040907     0.97703228     779.72862    
      9400   1.0428912      203.36378      18.788601      222.15238      0.99081524     0.81447487     0.92627227     777.7022     
      9500   1.0932791      213.18942      20.340781      233.5302       1.0374723      0.86005478     0.97776256     771.31654    
      9600   1.0468591      204.13752      26.66031       230.79783      0.99313777     0.96853852     1.0823462      763.1458     
      9700   0.90085508     175.66674      31.281086      206.94783      0.85877752     1.0171983      1.1173178      758.64432    
      9800   0.97204883     189.54952      27.713932      217.26345      0.9396235      0.97486776     1.0876082      760.68685    
      9900   1.0434374      203.4703       18.059322      221.52962      1.0269427      0.78730925     0.91417598     767.92316    
     10000   1.0327284      201.38203      12.765975      214.148        1.0245483      0.65944067     0.78755851     771.24805    
     10100   0.98500748     192.07646      14.871658      206.94812      0.97164978     0.68331883     0.80481354     762.31245    
     10200   0.96260723     187.70841      23.586604      211.29501      0.93732282     0.92623078     1.043437       741.66042    
     10300   1.0116619      197.27407      31.986136      229.2602       0.97930421     1.229405       1.3534587      722.76853    
     10400   1.1091182      216.27805      28.579335      244.85738      1.0734685      1.1819279      1.3181582      721.19201    
     10500   1.0593159      206.56661      18.779956      225.34656      1.0276128      0.83019052     0.95872696     735.38644    
     10600   0.93962297     183.22648      12.907163      196.13364      0.91759432     0.62117722     0.73561315     748.26724    
     10700   0.98045671     191.18906      12.873218      204.06228      0.96039968     0.6927221      0.81336927     747.7013     
     10800   1.1106539      216.57751      21.565887      238.1434       1.082962       0.95527144     1.0917474      738.08105    
     10900   1.0664656      207.96079      30.749996      238.71078      1.0355828      1.1113718      1.241505       733.59465    
     11000   1.0012814      195.24988      25.152568      220.40245      0.97971264     0.9599818      1.0838851      740.948      
     11100   0.98653475     192.37428      15.111339      207.48561      0.97329343     0.72456174     0.84789807     752.41983    
     11200   1.0665465      207.97657      11.618731      219.5953       1.0505121      0.7007316      0.83272603     756.27041    
     11300   1.1563204      225.48248      14.891588      240.37406      1.1273583      0.86835362     1.0078073      751.74405    
     11400   1.0064734      196.26232      20.770329      217.03265      0.96905152     1.0005744      1.1178755      747.3911     
     11500   0.96679013     188.52408      24.810606      213.33468      0.92232755     1.0643096      1.1733032      749.74938    
     11600   1.0286199      200.58089      23.16901       223.7499       0.97852627     0.96477617     1.0779074      761.30437    
     11700   1.069887       208.62797      18.151765      226.77974      1.0195042      0.81460628     0.93056057     776.91626    
     11800   1.0612626      206.94622      14.078325      221.02454      1.0139932      0.69654755     0.81098334     787.81101    
     11900   1.0336583      201.56336      15.148131      216.71149      0.98692782     0.71050978     0.82178566     787.29095    
     12000   0.9590965      187.02382      21.353855      208.37767      0.91413732     0.84750894     0.95156158     776.70707    
     12100   0.96680268     188.52652      30.006106      218.53263      0.9221174      1.0522999      1.1590457      764.93811    
     12200   1.0953833      213.59975      31.252119      244.85187      1.0526961      1.099057       1.2233906      762.78853    
     12300   1.0756803      209.75766      24.111688      233.86934      1.0473034      0.91369838     1.0394331      772.27882    
     12400   0.97307533     189.74969      17.190111      206.9398       0.96052319     0.74348721     0.86049902     783.54146    
     12500   0.94766829     184.79532      16.599216      201.39453      0.94110988     0.73104988     0.84670706     786.37466    
     12600   1.1280789      219.97538      22.78409       242.75947      1.1195442      0.91856882     1.0568738      781.25197    
     12700   1.0865632      211.87982      27.187402      239.06722      1.0778363      0.99239302     1.1257707      779.18735    
     12800   0.97040684     189.22933      23.634853      212.86419      0.96661829     0.87964744     0.99957225     783.73962    
     12900   0.96235624     187.65947      18.455405      206.11487      0.96534862     0.76623286     0.88701153     788.11661    
     13000   1.0332178      201.47747      18.450821      219.92829      1.037602       0.78205967     0.91250125     786.09844    
     13100   1.1126498      216.96671      22.732014      239.69872      1.1102869      0.90740448     1.0463876      779.57221    
     13200   0.99253951     193.5452       26.924781      220.46998      0.98296216     1.0317717      1.1534227      776.50576    
     13300   0.91881321     179.16858      24.239307      203.40788      0.90873157     0.97337441     1.0847425      781.99927    
     13400   0.998938       194.79291      17.466051      212.25896      0.99520427     0.80860669     0.93083724     791.9619     
     13500   1.0504649      204.84066      14.525834      219.3665       1.052894       0.71524667     0.84520143     797.64127    
     13600   1.0087178      196.69997      17.658774      214.35874      1.0100078      0.74805603     0.87302878     794.03164    
     13700   0.96184723     187.56021      24.111462      211.67167      0.96015849     0.89201096     1.011681       783.5394     
     13800   0.95189849     185.62021      28.5104        214.13061      0.94991772     0.9912624      1.1110103      774.17407    
     13900   1.00785        196.53075      27.322741      223.85349      1.0061043      0.99910554     1.1264246      771.74436    
     14000   1.0674935      208.16123      20.338135      228.49936      1.0678567      0.87446971     1.0093499      776.39875    
     14100   1.001008       195.19655      15.189352      210.38591      1.0021847      0.74998516     0.87595307     781.49702    
     14200   0.92782138     180.92517      16.358848      197.28402      0.92666949     0.77845984     0.89464363     779.70423    
     14300   0.99093263     193.23186      23.15101       216.38287      0.98249132     0.93841115     1.0609214      772.49114    
     14400   1.1072824      215.92007      29.504742      245.42481      1.0900821      1.08236        1.2168407      769.43403    
     14500   1.0450463      203.78403      28.679585      232.46361      1.027867       0.9746496      1.0998379      777.87642    
     14600   0.98833805     192.72592      22.184757      214.91068      0.97868859     0.80323839     0.92194727     792.1045     
     14700   0.99069038     193.18462      16.048464      209.23309      0.99093177     0.71036877     0.83158747     801.51321    
     14800   1.0498818      204.72695      15.388414      220.11536      1.0526427      0.75469203     0.88417519     800.85601    
     14900   1.0971811      213.95032      19.431191      233.38151      1.0946606      0.85080406     0.98542499     793.22919    
     15000   0.96992169     189.13473      25.40222       214.53695      0.96125476     0.94645552     1.0643136      784.95183    
     15100   0.93907611     183.11984      30.154119      213.27396      0.9243459      1.0404596      1.1527194      781.34395    
     15200   1.0233053      199.54453      28.819541      228.36407      1.0048506      0.99925633     1.119867       786.63637    
     15300   1.0564614      206.00997      22.065904      228.07587      1.0407334      0.87004887     0.99384779     799.07742    
     15400   1.0182073      198.55043      16.275631      214.82606      1.0048418      0.72670076     0.84497354     810.56881    
     15500   1.00311        195.60645      16.594198      212.20065      0.98399458     0.7677314      0.88182088     812.55482    
     15600   1.0201596      198.93113      20.537983      219.46911      0.99597947     0.91085197     1.0258943      807.44944    
     15700   1.0261177      200.09295      23.284387      223.37734      1.004769       0.96765097     1.0849512      803.95677    
     15800   1.0099019      196.93087      24.119065      221.04993      0.99516218     0.9273248      1.0448148      805.6147     
     15900   0.99842713     194.69329      24.366445      219.05974      0.98817311     0.87360371     0.99066436     810.1905     
     16000   1.0272206      200.30801      24.613559      224.92157      1.0191677      0.82819037     0.94893534     814.17976    
     16100   1.1696872      228.08901      25.229278      253.31829      1.1594931      0.85492823     0.99184998     815.37421    
     16200   1.0696659      208.58486      24.896225      233.48108      1.0574762      0.8889218      1.0130088      816.00581    
     16300   0.97847832     190.80327      23.583116      214.38639      0.96442577     0.88308658     0.99534678     817.5068     
     16400   0.99496781     194.01872      21.341145      215.35987      0.98120429     0.8787227      0.99283842     819.11705    
     16500   1.0554095      205.80485      20.2353        226.04015      1.0429703      0.86215225     0.98377702     820.43683    
     16600   1.0735433      209.34093      20.893112      230.23405      1.0621816      0.84828031     0.97242058     820.67057    
     16700   0.94688839     184.64324      21.12493       205.76817      0.93896971     0.82754403     0.93801218     819.01329    
     16800   0.92814056     180.98741      20.819982      201.80739      0.92672948     0.82590233     0.93722581     813.34436    
     16900   1.0373225      202.27789      21.980126      224.25802      1.0449644      0.87025546     0.99956146     803.49462    
     17000   1.0548431      205.69441      25.872256      231.56667      1.0703544      0.93170398     1.0677647      793.17106    
     17100   0.98045019     191.18779      28.672496      219.86028      1.0023988      0.98404758     1.1143564      786.70875    
     17200   0.96316759     187.81768      27.36577       215.18345      0.99161444     0.97087498     1.1013828      787.12017    
     17300   0.96272859     187.73207      20.985944      208.71802      1.0004507      0.8375709      0.97038588     793.58495    
     17400   0.9691223      188.97885      15.741268      204.72012      1.0157727      0.71505442     0.85106786     798.76344    
     17500   0.95549588     186.3217       16.979765      203.30146      1.0027577      0.78504876     0.92011474     795.80587    
     17600   0.90803854     177.06752      23.077805      200.14532      0.95048926     0.92431557     1.053091       787.61788    
     17700   0.91735076     178.8834       25.957038      204.84044      0.95989409     1.0379942      1.1688551      782.24716    
     17800   1.0178104      198.47302      21.106247      219.57927      1.0681126      0.94737633     1.0929944      786.19358    
     17900   1.0166913      198.2548       15.354983      213.60978      1.0668758      0.74772706     0.8913452      796.13772    
     18000   0.88071342     171.73912      16.554937      188.29405      0.91476608     0.67795393     0.79820879     800.69401    
     18100   0.90477428     176.43098      23.133631      199.56462      0.92313137     0.80982538     0.92835726     793.42799    
     18200   0.99094653     193.23457      32.886001      226.12057      0.99258012     1.0822751      1.2070874      781.90561    
     18300   1.0363007      202.07864      33.42521       235.50385      1.029026       1.0889984      1.2162799      781.15064    
     18400   1.0099836      196.9468       21.932963      218.87976      1.0056477      0.85995408     0.98310541     793.3977     
     18500   0.90975845     177.4029       14.410749      191.81365      0.90801505     0.63371463     0.74373003     805.75548    
     18600   0.90607618     176.68486      15.644413      192.32927      0.90124319     0.64814979     0.75693638     803.21844    
     18700   1.0801009      210.61967      24.478843      235.09852      1.0678177      0.90079324     1.0308674      786.09718    
     18800   1.0712289      208.88964      34.34455       243.23419      1.0607895      1.1325239      1.2647743      770.67222    
     18900   0.96847695     188.85301      33.076705      221.92971      0.97134926     1.0753925      1.1997713      769.8445     
     19000   0.93714256     182.7428       24.092775      206.83557      0.95533991     0.83838625     0.96291717     780.30253    
     19100   0.99106998     193.25865      18.430498      211.68914      1.0201069      0.72449519     0.85829741     789.46866    
     19200   1.0879746      212.15504      19.761862      231.9169       1.1181566      0.76938954     0.91542064     790.6866     
     19300   1.1273893      219.84092      25.333708      245.17462      1.1486503      0.89670104     1.0449486      787.28876    
     19400   0.95366721     185.96511      29.135627      215.10073      0.96401047     0.92892111     1.0516893      785.95254    
     19500   0.93238143     181.81438      29.401683      211.21606      0.93626994     0.95214721     1.0695116      788.2521     
     19600   1.0171301      198.34037      25.662503      224.00288      1.0218701      0.90859723     1.0357444      794.88676    
     19700   1.0511362      204.97157      19.232794      224.20436      1.0652554      0.80517808     0.93844402     804.01851    
     19800   0.95720219     186.65443      17.38614       204.04057      0.97412631     0.71040141     0.83242706     809.37561    
     19900   0.87103453     169.85173      20.864058      190.71579      0.88582244     0.74263077     0.85413015     804.43713    
     20000   1.0241513      199.70951      29.775504      229.48501      1.0385171      1.0016284      1.1337818      791.32268    
     20100   1.0740818      209.44596      38.410196      247.85615      1.0866213      1.1595691      1.2981928      785.82619    
     20200   0.94484056     184.24391      32.593582      216.83749      0.96073908     1.0131274      1.1350558      797.62063    
     20300   0.9059501      176.66027      18.839148      195.49942      0.93124843     0.73727154     0.85492071     817.6473     
     20400   1.0050648      195.98764      11.656092      207.64373      1.0401291      0.60543962     0.7366988      828.66724    
     20500   1.0411063      203.01574      14.10127       217.11701      1.0735228      0.65542666     0.79104859     822.33336    
     20600   0.9893776      192.92863      25.695254      218.62389      1.0152933      0.94397147     1.0739915      804.12434    
     20700   0.9677885      188.71876      34.945279      223.66404      0.99877301     1.1514918      1.2826823      792.14358    
     20800   0.9483808      184.93426      28.396756      213.33101      0.99313056     0.99994946     1.133074       796.6449     
     20900   0.93474739     182.27574      19.17043       201.44617      0.99005256     0.77034617     0.90369481     808.47963    
     21000   0.96881264     188.91847      15.664272      204.58274      1.0354427      0.67133123     0.81200503     813.69971    
     21100   0.99665661     194.34804      17.893005      212.24104      1.070945       0.72067852     0.86863471     807.25825    
     21200   0.90629992     176.72849      24.041302      200.76979      0.97693025     0.81553899     0.9535541      793.47895    
     21300   0.8699965      169.64932      33.059357      202.70867      0.93479048     0.99032387     1.1240527      779.5199     
     21400   0.94205568     183.70086      36.545831      220.24669      1.0062857      1.0591751      1.2026751      774.50095    
     21500   1.0211442      199.12312      29.789751      228.91287      1.087605       0.98410736     1.137074       781.5114     
     21600   0.91052997     177.55335      20.078636      197.63198      0.96891939     0.76212144     0.89592205     794.76496    
     21700   0.83510225     162.84494      16.413327      179.25827      0.88563208     0.64895366     0.76964603     800.75699    
     21800   0.95236809     185.71178      20.61846       206.33024      1.0001519      0.77425209     0.90952642     793.44501    
     21900   1.0216119      199.21432      29.987129      229.20145      1.0601219      0.97081336     1.1132205      782.27371    
     22000   0.96746078     188.65485      32.396359      221.05121      1.0029208      1.0269538      1.16205        778.71082    
     22100   0.89510265     174.54502      21.629114      196.17413      0.94012451     0.85910721     0.98785374     783.79946    
     22200   0.91631752     178.68192      13.759511      192.44143      0.96945256     0.67208339     0.80590837     787.35436    
     22300   1.0908144      212.70882      13.901927      226.61074      1.1459551      0.73512075     0.89276175     780.60919    
     22400   1.0186315      198.63314      19.605401      218.23854      1.0608347      0.8838591      1.0297759      768.87242    
     22500   0.93713564     182.74145      26.401946      209.1434       0.96743825     0.99647711     1.1289096      760.52277    
     22600   0.9482572      184.91015      26.841473      211.75163      0.97310189     0.96653395     1.0984389      759.70396    
     22700   1.0201601      198.93123      23.035419      221.96665      1.0394102      0.87536519     1.0135466      764.32819    
     22800   1.0754966      209.72184      21.67543       231.39726      1.0834485      0.81337264     0.95336743     769.51851    
     22900   0.96923197     189.00023      22.806356      211.80659      0.96568071     0.80450486     0.92625026     771.64485    
     23000   0.91723916     178.86164      24.206689      203.06832      0.90644476     0.8585785      0.97124799     769.74413    
     23100   1.0247967      199.83535      23.686049      223.5214       1.0116118      0.95319465     1.0791005      766.97687    
     23200   1.0670939      208.08332      20.302187      228.3855       1.0591625      0.91743102     1.0505208      768.2882     
     23300   1.0085476      196.66678      18.018434      214.68521      1.0056325      0.80960372     0.93653257     771.9565     
     23400   0.98122558     191.33899      18.271281      209.61027      0.97956995     0.81015479     0.93400046     772.53412    
     23500   0.99686402     194.38848      20.565786      214.95427      0.99329886     0.87566956     1.0012196      769.79742    
     23600   1.01329        197.59154      23.770652      221.3622       1.0044082      0.96940773     1.0953599      767.75211    
     23700   1.0101286      196.97508      23.608988      220.58406      0.99841989     0.96258687     1.0865348      770.9849     
     23800   1.0004534      195.08842      19.872628      214.96105      0.99128605     0.84065409     0.96310686     778.73611    
     23900   0.99565032     194.15181      17.839634      211.99145      0.99204785     0.7572814      0.88035116     784.25609    
     24000   1.0076253      196.48692      20.302585      216.78951      1.0050741      0.81286982     0.93803216     782.98135    
     24100   1.0245929      199.79561      26.10031       225.89592      1.0174073      0.99197063     1.1181828      778.88493    
     24200   1.0209259      199.08054      25.891864      224.97241      1.0121455      1.0396279      1.1643686      781.4461     
     24300   0.97831707     190.77183      18.497571      209.2694       0.97143941     0.8675288      0.98589838     792.93953    
     24400   0.97454437     190.03615      14.441806      204.47796      0.96334174     0.70418383     0.81896887     803.44078    
     24500   1.0820061      210.99119      14.613407      225.6046       1.0585538      0.73429463     0.85775065     803.24205    
     24600   1.1126148      216.95989      19.570285      236.53017      1.0767539      0.89046285     1.014413       794.90858    
     24700   0.96602555     188.37498      28.268616      216.6436       0.92907212     0.97119051     1.0776805      787.33336    
     24800   0.96107189     187.40902      32.500904      219.90992      0.92936796     1.0083693      1.1165295      784.90805    
     24900   1.0203038      198.95924      28.856518      227.81576      0.99883346     0.92772879     1.0464742      789.07469    
     25000   1.0402726      202.85316      24.147589      227.00075      1.0265968      0.84952111     0.97249845     796.40444    
     25100   1.008815       196.71893      21.216991      217.93593      1.0002734      0.78146004     0.90160025     802.07265    
     25200   0.91670638     178.75774      20.676099      199.43384      0.91102181     0.73785046     0.84785388     801.53557    
     25300   0.8996633      175.43434      23.468631      198.90297      0.89332156     0.78417414     0.89316646     791.88035    
     25400   1.0710371      208.85222      28.744991      237.59722      1.0579818      0.98080478     1.1109572      777.06132    
     25500   1.0942933      213.38719      29.941083      243.32827      1.0735181      1.0701554      1.2017214      768.84284    
     25600   1.0167475      198.26575      23.100459      221.36621      0.99135006     0.94847954     1.0679493      771.7421     
     25700   1.0003673      195.07163      16.616999      211.68863      0.96667908     0.76366396     0.87693521     778.35583    
     25800   1.0480837      204.37632      16.796342      221.17266      0.99858153     0.76129692     0.87460262     778.49636    
     25900   1.1358568      221.49208      21.995722      243.48781      1.0623958      0.906964       1.0232815      771.93806    
     26000   1.2474311      243.24907      25.164537      268.4136       1.1508153      1.0395258      1.1619971      767.03547    
     26100   1.092192       212.97744      23.369197      236.34664      1.0007079      0.93724732     1.0413945      770.35191    
     26200   1.0153321      197.98977      22.290055      220.27982      0.92709211     0.82072224     0.91558071     776.40107    
     26300   1.0893221      212.41781      22.903284      235.3211       0.99545364     0.84761401     0.94942407     778.41129    
     26400   1.1669696      227.55907      21.937946      249.49702      1.0731338      0.88542177     0.99717049     777.36134    
     26500   1.0925951      213.05604      21.800426      234.85647      1.0100946      0.95029856     1.0570787      776.37737    
     26600   1.0009189      195.17919      22.01688       217.19607      0.92796318     0.93424512     1.0327951      778.42775    
     26700   1.0220667      199.303        20.384662      219.68766      0.95232652     0.86297315     0.96486932     782.45012    
     26800   1.0625646      207.2001       18.225069      225.42517      0.99691197     0.80880678     0.91698731     784.754      
     26900   1.1047717      215.43048      18.176183      233.60667      1.040919       0.84071431     0.95516503     782.50953    
     27000   1.0710827      208.86113      21.023703      229.88483      1.0089675      0.92354849     1.035151       777.45872    
     27100   0.97101423     189.34777      22.947125      212.2949       0.91748161     0.95881132     1.0614672      774.18217    
     27200   0.99055528     193.15828      21.034843      214.19312      0.94652231     0.92058247     1.0292588      774.52687    
     27300   1.1344328      221.2144       20.200945      241.41534      1.0958389      0.84655494     0.97511298     776.81961    
     27400   1.068985       208.45207      24.485808      232.93787      1.0324264      0.85950971     0.98033823     778.36634    
     27500   0.99752375     194.51713      29.294849      223.81198      0.95566374     0.90005171     1.0098011      778.97798    
     27600   1.0264421      200.15621      29.072249      229.22846      0.97851977     0.96062484     1.0715065      780.56285    
     27700   1.1587084      225.94813      24.036378      249.98451      1.1003855      0.94017688     1.0628116      786.60261    
     27800   1.1956269      233.14724      19.85224       252.99948      1.1260385      0.83796608     0.95932696     797.473      
     27900   0.98512216     192.09882      16.39596       208.49478      0.92277052     0.69370925     0.79073924     806.68811    
     28000   1.0216216      199.21621      15.769193      214.98541      0.95611723     0.70337144     0.8040386      803.89799    
     28100   1.1400099      222.30193      21.523457      243.82538      1.0686779      0.9344439      1.0496099      788.60724    
     28200   1.1012648      214.74663      33.836755      248.58339      1.0384077      1.212884       1.3283058      775.47592    
     28300   0.95873761     186.95383      32.369502      219.32334      0.91703421     1.1171188      1.2218893      780.15405    
     28400   0.96017053     187.23325      20.354174      207.58743      0.93274119     0.80625708     0.91403565     798.48815    
     28500   0.99822183     194.65326      15.050669      209.70393      0.97622074     0.64134159     0.75371409     813.18314    
     28600   1.0375441      202.3211       16.72264       219.04374      1.0148131      0.68803112     0.80492029     812.89948    
     28700   1.0631207      207.30854      24.071167      231.37971      1.0365135      0.89685688     1.0172695      800.4969     
     28800   0.99524666     194.0731       32.030921      226.10402      0.96620835     1.1062205      1.2189619      789.64759    
     28900   0.91741009     178.89497      27.940934      206.8359       0.89389962     1.0366995      1.1416175      791.26136    
     29000   1.0205192      199.00124      17.605306      216.60655      1.0039258      0.85451984     0.97320278     801.70767    
     29100   1.0747215      209.5707       14.119112      223.68981      1.0630285      0.7341905      0.8599002      810.57103    
     29200   1.0088265      196.72116      17.043358      213.76452      1.0005288      0.75313568     0.87208596     810.70653    
     29300   0.96546451     188.26558      23.775732      212.04131      0.958623       0.84915327     0.96449134     802.95227    
     29400   1.0127719      197.49051      28.710507      226.20102      1.0101156      0.95011198     1.0742678      793.14349    
     29500   1.1403973      222.37746      27.376031      249.7535       1.1466075      1.0452595      1.1892916      788.56413    
     29600   1.0104862      197.04482      23.308479      220.3533       1.0178541      0.93527817     1.0626199      794.60542    
     29700   0.93215342     181.76992      19.72899       201.49891      0.93497013     0.77918359     0.89373254     804.68941    
     29800   0.99551709     194.12583      18.590078      212.71591      0.99091505     0.72340613     0.84241117     808.47225    
     29900   1.0830323      211.19129      20.719379      231.91067      1.0642701      0.75105417     0.87649073     802.31664    
     30000   1.0517884      205.09873      27.329132      232.42787      1.0142626      0.88107133     0.99779933     788.84428    
     30100   0.95807332     186.8243       34.319494      221.14379      0.90544644     1.0299094      1.1310697      775.71446    
     30200   1.0323018      201.29886      30.586506      231.88537      0.9690923      1.0505041      1.1577579      770.55671    
     30300   1.099675       214.43663      17.997507      232.43414      1.0381127      0.85542011     0.97137991     773.80592    
     30400   1.0723244      209.10325      12.888962      221.99221      1.0124542      0.7574689      0.87029372     775.94482    
     30500   0.97718507     190.55109      17.914444      208.46553      0.91236848     0.83135882     0.9309189      771.12112    
     30600   0.98483906     192.04362      26.022302      218.06592      0.9109788      0.97610941     1.0742841      762.65266    
     30700   1.1733436      228.802        27.416338      256.21833      1.0882938      1.0821203      1.2007927      758.96443    
     30800   1.1204243      218.48273      20.804087      239.28682      1.0439235      0.91488478     1.0290352      765.54141    
     30900   1.0124625      197.43018      16.537304      213.96749      0.94263583     0.75431119     0.8560731      773.98423    
     31000   1.0374967      202.31186      15.579801      217.89167      0.96554274     0.7318667      0.8359118      774.58873    
     31100   1.1634343      226.86969      18.999302      245.86899      1.0811023      0.87961206     0.9968979      766.44619    
     31200   1.1476584      223.79338      26.164426      249.95781      1.0609447      1.0177094      1.1325591      758.06358    
     31300   0.96430673     188.03981      28.415594      216.45541      0.89140241     1.0131485      1.1098271      756.53868    
     31400   1.0330364      201.4421       23.993354      225.43545      0.96171095     0.9282976      1.0338321      761.2603     
     31500   1.1224365      218.87511      19.829064      238.70417      1.0503847      0.83842866     0.95412174     768.30523    
     31600   1.0929634      213.12785      19.333962      232.46182      1.0247662      0.79148745     0.90421647     772.9035     
     31700   0.9989657      194.79831      20.519967      215.31828      0.93879704     0.81414576     0.91810932     772.08994    
     31800   0.96005804     187.21132      24.723361      211.93468      0.90145556     0.90583823     1.0061573      766.70516    
     31900   1.1262639      219.62147      28.116161      247.73763      1.0569189      1.0256584      1.1438502      761.94613    
     32000   1.1423935      222.76673      24.829515      247.59625      1.0791833      0.96038676     1.0825938      764.55451    
     32100   1.0155597      198.03415      18.619087      216.65324      0.97023678     0.7772207      0.88894872     771.92118    
     32200   0.98601231     192.2724       16.390207      208.66261      0.94995747     0.7328482      0.8440382      774.03672    
     32300   1.0569977      206.11456      20.129123      226.24368      1.0208647      0.87418562     0.99532621     767.69315    
     32400   1.1346112      221.24919      26.663138      247.91233      1.0948606      1.0339521      1.1648248      760.62412    
     32500   1.0868779      211.9412       27.243611      239.18481      1.0497354      1.0371077      1.1625306      762.47089    
     32600   0.94560028     184.39205      20.135135      204.52719      0.91964725     0.8129979      0.92298768     773.38629    
     32700   0.97003384     189.1566       14.518505      203.6751       0.95329206     0.69955908     0.81491819     781.54187    
     32800   1.0748777      209.60116      14.427273      224.02843      1.064233       0.78017847     0.91128522     779.66311    
     32900   1.0519993      205.13986      19.344667      224.48453      1.0432185      0.92891773     1.0590903      772.22972    
     33000   0.95710155     186.6348       24.06511       210.69991      0.94857366     0.9896851      1.108634       767.53335    
     33100   0.9564195      186.5018       24.614868      211.11667      0.94781768     0.94030695     1.058938       768.8439     
     33200   0.9862556      192.31984      21.590326      213.91017      0.9818078      0.8520786      0.97527639     773.95738    
     33300   1.0109588      197.13696      17.775193      214.91215      1.0150547      0.78075706     0.90958376     778.36399    
     33400   1.0153374      197.99079      16.946422      214.93722      1.0248713      0.78268771     0.91415067     778.13938    
     33500   0.95353381     185.93909      23.690668      209.62976      0.95431042     0.95330669     1.0744506      773.24438    
     33600   0.89969397     175.44032      33.217066      208.65739      0.88065027     1.1445544      1.2514603      772.55021    
     33700   1.0271589      200.29599      27.100508      227.3965       0.99606285     1.0189162      1.1352992      786.63076    
     33800   1.0480072      204.36141      16.379209      220.74062      1.0211633      0.70941705     0.82641244     810.6253     
     33900   1.0205807      199.01323      13.693524      212.70675      0.9981275      0.60248538     0.71564528     825.71767    
     34000   1.0191299      198.73032      16.257073      214.9874       0.99570755     0.68414453     0.79723142     822.48251    
     34100   1.0499929      204.74862      25.132553      229.88117      1.0193869      0.90890633     1.0253871      806.41394    
     34200   1.0514553      205.03379      34.498289      239.53208      1.0135964      1.1203447      1.2363236      792.81654    
     34300   0.99089114     193.22377      29.73992       222.96369      0.95701997     1.0054364      1.1153962      792.86311    
     34400   0.97341536     189.816        18.824765      208.64076      0.94741713     0.791788       0.90153142     799.84042    
     34500   1.0801761      210.63434      14.074253      224.7086       1.056593       0.70744786     0.83092502     801.34181    
     34600   1.1379322      221.89678      18.143217      240.04         1.1118129      0.82735249     0.95824651     793.49999    
     34700   0.98698917     192.46289      26.52397       218.98686      0.96360714     0.94968656     1.0644573      783.07427    
     34800   0.97469599     190.06572      32.165924      222.23164      0.95412693     1.0337003      1.1488587      777.13335    
     34900   1.02688        200.24161      31.229919      231.47153      1.0086338      0.99724477     1.119434       779.84056    
     35000   1.0602134      206.74162      23.179191      229.92081      1.0511285      0.87101192     0.9992435      789.50148    
     35100   0.98433316     191.94497      15.28392       207.22889      0.98892795     0.70236718     0.8248424      798.61808    
     35200   0.86983007     169.61686      13.694271      183.31113      0.88374387     0.7113871      0.8234005      797.40546    
     35300   0.94230074     183.74864      21.241268      204.98991      0.96237779     0.95574689     1.0805829      786.85645    
     35400   0.99698112     194.41132      28.454808      222.86613      1.0232747      1.1317858      1.2666461      781.60996    
     35500   0.96409467     187.99846      23.735145      211.73361      0.9997375      0.95684395     1.0894838      791.0491     
     35600   0.92784288     180.92936      16.966455      197.89582      0.97549529     0.73392135     0.8640849      805.83818    
     35700   0.97511969     190.14834      16.382699      206.53104      1.0332785      0.70598722     0.84458096     812.46278    
     35800   1.0550838      205.74133      21.163987      226.90532      1.1189158      0.81086238     0.96167759     809.60659    
     35900   0.93997144     183.29443      27.370022      210.66445      0.99199293     0.91996354     1.0534132      804.49407    
     36000   0.89787973     175.08655      27.534001      202.62055      0.94515747     0.95760891     1.0844367      803.01469    
     36100   0.94522809     184.31948      21.54923       205.86871      0.99852797     0.88695181     1.0211509      806.63138    
     36200   0.97242377     189.62263      18.359675      207.98231      1.032318       0.82132612     0.9603722      811.57661    
     36300   0.92922245     181.19838      19.978316      201.17669      0.99145051     0.82628745     0.96049106     814.40894    
     36400   0.81748191     159.40897      23.939093      183.34806      0.87567408     0.80482972     0.92414132     814.36782    
     36500   0.87485592     170.5969       29.682996      200.2799       0.93894205     0.89421956     1.0231813      810.41927    
     36600   0.96691538     188.5485       33.172793      221.72129      1.0407944      0.96622306     1.1102567      808.17401    
     36700   0.94532835     184.33903      30.244303      214.58333      1.023279       0.90145447     1.0436214      812.29648    
     36800   0.87504199     170.63319      24.972488      195.60568      0.95604747     0.82469673     0.95831346     819.42376    
     36900   0.84686917     165.13949      21.765845      186.90533      0.9352379      0.78336058     0.915474       824.1798     
     37000   0.96594645     188.35956      21.599431      209.95899      1.0754209      0.83719875     0.99100079     824.03815    
     37100   0.97254008     189.64532      21.339327      210.98464      1.0871107      0.84850331     1.0051081      822.95146    
     37200   0.87179092     169.99923      20.728628      190.72786      0.97543018     0.81408317     0.95496868     821.95686    
     37300   0.86501478     168.67788      22.625989      191.30387      0.96413104     0.84229299     0.98134704     818.47677    
     37400   0.91323624     178.08107      25.751572      203.83264      1.0092493      0.88440809     1.0289272      813.93376    
     37500   0.95178678     185.59842      26.489206      212.08763      1.0452371      0.91039301     1.0591738      810.9655     
     37600   0.87731632     171.07668      26.182526      197.25921      0.95774615     0.89557993     1.0305801      811.42789    
     37700   0.8209027      160.07603      25.574277      185.6503       0.88747681     0.84551986     0.96830502     814.06157    
     37800   0.93512166     182.34872      24.484607      206.83333      1.0020251      0.82436746     0.96081565     815.28837    
     37900   0.99421951     193.8728       23.507313      217.38012      1.0609598      0.82097282     0.96468625     814.03966    
     38000   0.94557125     184.38639      24.293932      208.68033      1.0047454      0.81849421     0.95426596     810.21273    
     38100   0.90312764     176.10989      26.932404      203.04229      0.95167737     0.86107467     0.98900923     803.00095    
     38200   0.95754961     186.72217      29.308205      216.03038      0.99701026     0.97243483     1.1050762      794.63773    
     38300   1.1456671      223.40509      28.18501       251.5901       1.1781313      0.98849818     1.1422462      792.12306    
     38400   1.037136       202.24153      23.829137      226.07067      1.0536345      0.83122841     0.96467373     797.88024    
     38500   0.96435608     188.04944      18.856839      206.90627      0.97222918     0.72745824     0.84801481     803.05635    
     38600   0.97896417     190.89801      19.21452       210.11253      0.98047739     0.71927453     0.83989722     799.03594    
     38700   1.0509945      204.94392      25.909452      230.85337      1.0450248      0.89690642     1.025958       784.55711    
     38800   1.0759143      209.80328      32.231162      242.03445      1.0695075      1.0838828      1.2183564      770.1315     
     38900   0.94350646     183.98376      26.186974      210.17073      0.9523214      1.0091166      1.1331095      766.54707    
     39000   0.92941317     181.23557      16.709271      197.94484      0.95223997     0.814598       0.94144002     770.80717    
     39100   0.99840369     194.68872      14.387666      209.07639      1.0244663      0.72830724     0.86482533     772.64421    
     39200   1.0553625      205.79568      17.985722      223.7814       1.0738556      0.84281415     0.98465707     767.35607    
     39300   0.93739351     182.79173      23.519188      206.31092      0.94170272     0.94777831     1.0702561      760.3596     
     39400   0.90653688     176.77469      26.642825      203.41752      0.89737947     1.000822       1.1146212      757.10077    
     39500   1.0259221      200.0548       23.189187      223.24399      1.0083907      0.926369       1.0518752      760.15111    
     39600   1.0693836      208.52981      16.061135      224.59094      1.0528481      0.7441981      0.87464253     766.26258    
     39700   1.0197197      198.84534      11.60269       210.44803      1.0074907      0.65152655     0.777334       765.84852    
     39800   0.97164609     189.47099      14.437044      203.90803      0.95827065     0.79300258     0.91424627     753.04794    
     39900   0.98969907     192.99132      25.909183      218.9005       0.97277429     1.1044303      1.2295595      735.49254    
     40000   1.1239486      219.16998      31.945928      251.11591      1.1084174      1.2485987      1.3932532      729.98958    
     40100   1.0589963      206.50428      20.272052      226.77633      1.0608044      0.93343379     1.073691       743.71535    
     40200   0.91756521     178.92522      10.976387      189.9016       0.93370843     0.63428779     0.75850409     761.98816    
     40300   0.92892453     181.14028      12.272342      193.41262      0.94837135     0.65080168     0.77683279     767.52892    
     40400   1.020472       198.99203      23.500708      222.49274      1.0321447      0.91795041     1.0538018      761.31996    
     40500   1.0176632      198.44433      32.357983      230.80231      1.025346       1.0693959      1.2039521      757.91435    
     40600   0.97748679     190.60992      25.547461      216.15739      1.000381       0.91539336     1.0494072      764.85939    
     40700   0.95303684     185.84218      16.586446      202.42863      0.99155683     0.70800619     0.84320702     774.28494    
     40800   0.96101197     187.39733      14.735542      202.13288      0.99967976     0.66218053     0.7983207      775.00145    
     40900   1.0224749      199.38261      18.882679      218.26529      1.050564       0.78971683     0.93150783     764.73559    
     41000   1.0453587      203.84494      25.798345      229.64329      1.0573656      1.0020389      1.1430303      751.55761    
     41100   0.95811002     186.83145      29.882466      216.71392      0.95239146     1.0974159      1.2209291      746.63465    
     41200   0.94828954     184.91646      26.442969      211.35943      0.92962058     0.95052982     1.0666613      753.13241    
     41300   1.0600884      206.71723      19.538993      226.25622      1.0382633      0.79292443     0.92065622     763.27065    
     41400   1.0823286      211.05407      14.139192      225.19326      1.0662154      0.73034975     0.86217445     768.80161    
     41500   1.0172668      198.36702      15.100951      213.46797      1.0042431      0.80158435     0.92663303     766.7111     
     41600   0.98686772     192.43921      24.026626      216.46583      0.97016702     1.0622857      1.1828224      761.75713    
     41700   0.98935354     192.92394      27.795718      220.71966      0.97336483     1.0799651      1.2003843      766.25613    
     41800   1.017337       198.38072      22.983136      221.36386      1.006981       0.87932546     1.0030122      781.52844    
     41900   1.0360862      202.03682      18.746226      220.78304      1.0326315      0.72141434     0.84759024     796.69905    
     42000   1.040273       202.85324      18.215228      221.06846      1.0398722      0.70635439     0.83327068     802.33457    
     42100   1.0035268      195.68772      20.824234      216.51195      1.0024656      0.76825404     0.89118155     797.50002    
     42200   0.95748112     186.70882      26.275543      212.98436      0.95536483     0.98057668     1.0989421      787.50275    
     42300   0.97690597     190.49666      29.17539       219.67205      0.9724821      1.0706028      1.1910812      783.88012    
     42400   1.0577459      206.26045      21.998099      228.25855      1.0555184      0.92771561     1.0579536      790.90951    
     42500   1.0514145      205.02582      14.598682      219.6245       1.0551427      0.72814407     0.85824828     800.36595    
     42600   0.90800298     177.06058      16.669956      193.73054      0.91145897     0.6954174      0.80777954     800.95392    
     42700   0.91886462     179.1786       24.8915        204.0701       0.92016128     0.83534996     0.94966067     791.0777     
     42800   1.0009096      195.17738      32.112444      227.28982      1.0054596      0.99204622     1.1194795      780.19125    
     42900   1.0123835      197.41478      32.166872      229.58165      1.0234889      1.0352313      1.1670008      777.6268     
     43000   0.97348705     189.82998      26.934455      216.76443      0.98793848     0.88549157     1.0126411      783.61311    
     43100   0.93090875     181.52721      22.667154      204.19436      0.94655576     0.7628195      0.88427908     788.85203    
     43200   0.96216013     187.62122      20.170574      207.7918       0.98052053     0.74949991     0.87616762     786.87218    
     43300   1.0671876      208.10158      20.900001      229.00158      1.0898592      0.85062551     0.9932998      779.58799    
     43400   1.0108458      197.11493      24.980546      222.09547      1.0321498      0.98767847     1.1236745      774.32369    
     43500   0.89857936     175.22297      28.815497      204.03847      0.91393882     1.0185228      1.1377187      776.54569    
     43600   0.93247892     181.83339      26.743238      208.57663      0.94487719     0.91566622     1.0365952      785.71462    
     43700   0.9937396      193.77922      19.995973      213.7752       1.0075963      0.79077858     0.91823441     795.93455    
     43800   1.0099024      196.93097      14.458757      211.38973      1.0256791      0.68975895     0.8192175      800.20208    
     43900   0.98439048     191.95614      15.701381      207.65753      0.99615428     0.72375628     0.84963827     793.73594    
     44000   0.91357559     178.14724      22.664076      200.81132      0.9197048      0.8876123      1.0048107      779.24522    
     44100   0.86723542     169.11091      33.22005       202.33096      0.87017722     1.1419692      1.2538946      767.03787    
     44200   1.0045552      195.88826      36.333873      232.22213      1.0055813      1.1683161      1.2966406      769.51044    
     44300   1.0203536      198.96895      27.517229      226.48618      1.0257889      0.89505303     1.0240647      787.42662    
     44400   0.97794159     190.69861      18.976645      209.67525      0.99319237     0.71207292     0.83652485     805.98794    
     44500   0.95295055     185.82536      18.328024      204.15338      0.97147254     0.66973414     0.79129146     812.91771    
     44600   1.0150541      197.93555      22.619472      220.55502      1.0354069      0.77413394     0.90481479     806.8411     
     44700   1.0823339      211.05511      27.552445      238.60755      1.1044468      0.93723137     1.0785501      796.41135    
     44800   0.95947719     187.09805      27.847566      214.94562      0.97976413     0.96361792     1.0899401      791.4117     
     44900   0.92513573     180.40147      23.755265      204.15673      0.94712557     0.88096831     1.0035592      792.11678    
     45000   0.97545223     190.21318      21.21528       211.42846      1.0026453      0.84811556     0.97862876     793.49741    
     45100   1.0101537      196.97996      23.017009      219.99697      1.0419256      0.87766884     1.0140855      793.92231    
     45200   0.96089428     187.37439      24.322353      211.69674      0.99501437     0.90941378     1.0403849      795.32654    
     45300   0.84614549     164.99837      22.335542      187.33391      0.88139666     0.84811155     0.96488648     798.55197    
     45400   0.91743025     178.8989       19.764364      198.66326      0.96275241     0.80741289     0.93644286     799.71775    
     45500   1.0046361      195.90404      18.635576      214.53961      1.0607909      0.85374383     0.99783998     797.43759    
     45600   0.96207665     187.60495      20.558003      208.16295      1.0186579      0.87807253     1.0175157      795.03208    
     45700   0.8994928      175.4011       21.284051      196.68515      0.95873267     0.84149354     0.97444719     793.5666     
     45800   0.91364682     178.16113      19.944292      198.10542      0.9832529      0.81627283     0.95528449     790.81109    
     45900   1.0728303      209.2019       20.294866      229.49677      1.1578697      0.86204498     1.0275056      786.01131    
     46000   0.99773378     194.55809      24.940203      219.49829      1.0684034      0.88144626     1.0328671      782.482      
     46100   0.91062608     177.57209      28.572503      206.14459      0.96327704     0.92163634     1.0555757      781.45867    
     46200   0.93144214     181.63122      25.913518      207.54474      0.97820217     0.91645142     1.0503953      783.77591    
     46300   1.001237       195.24122      18.94187       214.18309      1.0504442      0.82336928     0.9660115      788.95939    
     46400   1.0106849      197.08356      14.177664      211.26123      1.0610979      0.74282661     0.88645322     792.45853    
     46500   0.87875683     171.35758      14.526306      185.88389      0.92056464     0.75887402     0.88354206     789.03829    
     46600   0.89516659     174.55749      23.409248      197.96673      0.92634591     1.0109216      1.135146       779.73274    
     46700   0.99322958     193.67977      27.59555       221.27532      1.0229071      1.0880564      1.2244177      777.58152    
     46800   0.99592774     194.20591      17.920202      212.12611      1.037582       0.82869027     0.96811896     787.53953    
     46900   0.94640703     184.54937      10.092928      194.6423       0.99886913     0.61056613     0.74633225     796.36427    
     47000   0.92148018     179.68864      12.054859      191.74349      0.97319899     0.66857496     0.80196203     790.6214     
     47100   0.95792447     186.79527      26.718024      213.5133       1.0005385      0.97142409     1.1089699      773.28767    
     47200   1.0725228      209.14194      41.461549      250.60349      1.1125149      1.2291616      1.382383       762.45791    
     47300   0.9871304      192.49043      31.974689      224.46512      1.032481       1.0670778      1.2095733      772.13992    
     47400   0.88298138     172.18137      15.21193       187.3933       0.9333696      0.70007498     0.82772002     793.57512    
     47500   0.91858463     179.124        9.6181684      188.74217      0.96915599     0.58270644     0.71293578     805.03136    
     47600   1.0147425      197.87479      16.268545      214.14333      1.0505551      0.71167895     0.84928324     798.94211    
     47700   1.0226516      199.41707      32.4402        231.85727      1.0277114      0.99124638     1.120757       785.28219    
     47800   1.0061906      196.20718      40.74271       236.94989      0.99052642     1.0967928      1.217369       779.73134    
     47900   1.0148718      197.9          32.776974      230.67697      0.99843813     0.92385316     1.0442451      786.11854    
     48000   1.0180466      198.51908      25.24151       223.7606       1.0068594      0.76135242     0.88285548     794.14238    
     48100   1.0161766      198.15443      22.575964      220.73039      1.0052429      0.73304759     0.85432542     794.71845    
     48200   0.98255705     191.59862      23.795367      215.39399      0.96908353     0.7802504      0.89756745     787.12215    
     48300   0.96016532     187.23224      27.313514      214.54575      0.94469336     0.91455813     1.0300332      775.60387    
     48400   1.029135       200.68133      29.019174      229.70051      1.0112268      0.98274744     1.1073108      767.54626    
     48500   1.1264014      219.64827      25.607221      245.2555       1.1050058      0.91749507     1.0533966      766.13139    
     48600   1.0237199      199.62537      19.985649      219.61102      1.0003968      0.78340709     0.90522133     767.48739    
     48700   0.97319053     189.77215      17.372333      207.14449      0.94392717     0.76395708     0.87756034     764.04944    
     48800   1.0445014      203.67778      20.105756      223.78354      1.0009732      0.90573391     1.0243969      755.14183    
     48900   1.1009536      214.68595      25.771791      240.45774      1.0429684      1.0411252      1.1625206      748.82373    
     49000   1.0406971      202.93593      27.179045      230.11497      0.98234847     0.99694363     1.1099554      751.17998    
     49100   0.91533671     178.49066      25.022891      203.51355      0.86624492     0.87327911     0.97252693     758.89935    
     49200   1.0084747      196.65256      22.489548      219.14211      0.96058588     0.81836365     0.92921693     764.967      
     49300   1.081019       210.7987       21.056778      231.85548      1.03748        0.81730511     0.93878898     767.03948    
     49400   1.0554489      205.81254      20.680897      226.49344      1.0179106      0.82543698     0.94614698     765.76304    
     49500   0.99461644     193.95021      21.183716      215.13392      0.95954932     0.85425556     0.96873074     761.71748    
     49600   0.972358       189.60981      22.69483       212.30464      0.93581016     0.95073451     1.0625212      756.64263    
     49700   1.0851644      211.60705      22.520149      234.1272       1.0442125      0.98605555     1.1109978      755.12651    
     49800   1.1397571      222.25264      18.965269      241.21791      1.0994253      0.88428464     1.0158062      759.41138    
     49900   1.0125867      197.45441      15.3374        212.79181      0.97973776     0.76713604     0.88431706     764.70366    
     50000   0.98418249     191.91559      13.88403       205.79962      0.95512801     0.72888686     0.8440182      763.7965     
     50100   1.0406116      202.91927      15.78851       218.70778      1.0103145      0.78883607     0.91225881     754.3414     
     50200   1.0707042      208.78731      22.183285      230.9706       1.0358545      0.96841484     1.0962866      740.72692    
     50300   0.98998606     193.04728      29.601649      222.64893      0.95783002     1.1097578      1.2293093      732.71336    
     50400   0.8362837      163.07532      28.517589      191.59291      0.81701117     1.0292971      1.1329431      736.24611    
     50500   0.91229543     177.89761      19.624302      197.52191      0.90914194     0.82623383     0.94471601     746.78724    
     50600   0.98676834     192.41983      14.081119      206.50095      0.99680419     0.70659553     0.83865869     754.51622    
     50700   1.033403       201.51358      16.476019      217.9896       1.0453895      0.79440181     0.93338912     753.92163    
     50800   0.99472375     193.97113      25.260297      219.23143      1.0011415      0.96817277     1.1006408      750.0931     
     50900   0.91370103     178.1717       31.543045      209.71475      0.9170743      0.99236652     1.1128743      751.24673    
     51000   0.96564047     188.29989      28.362646      216.66254      0.97739162     0.93082803     1.0600979      758.69089    
     51100   1.0559318      205.9067       19.866275      225.77298      1.0856285      0.80325664     0.94904366     769.49545    
     51200   0.97733457     190.58024      15.014145      205.59439      1.0174335      0.68994553     0.82825735     777.43009    
     51300   0.91242086     177.92207      16.592528      194.5146       0.95393017     0.69884478     0.82980742     775.63705    
     51400   0.94565343     184.40242      22.067817      206.47023      0.98872055     0.84769317     0.98542706     764.46479    
     51500   1.0317504      201.19134      27.720946      228.91228      1.0759605      1.0358068      1.1872319      753.27709    
     51600   1.1288593      220.12757      26.569322      246.69689      1.1781461      1.0359555      1.2021521      752.5378     
     51700   0.96021059     187.24107      19.773492      207.01456      1.008008       0.82220012     0.96407611     761.97017    
     51800   0.89226339     173.99136      15.461579      189.45294      0.93830904     0.71424004     0.84533088     769.94848    
     51900   0.94923977     185.10176      17.26327       202.36503      0.99053589     0.77343377     0.91002994     769.60623    
     52000   1.0324291      201.32367      24.084216      225.40788      1.0654767      0.92264694     1.0676444      764.57221    
     52100   0.98823234     192.70531      28.455989      221.1613       1.0156381      0.97109608     1.1085209      763.15652    
     52200   0.84837393     165.43292      26.441822      191.87474      0.87782448     0.88826043     1.007853       767.35243    
     52300   0.88444777     172.46731      23.365284      195.8326       0.92227464     0.8175401      0.94414712     772.14642    
     52400   0.95507175     186.23899      20.816242      207.05523      1.0020322      0.80037767     0.93910343     773.87537    
     52500   0.97022628     189.19413      19.236541      208.43067      1.0215128      0.83682559     0.97938323     772.38321    
     52600   0.95079344     185.40472      19.092384      204.49711      0.99640216     0.86680196     1.005187       769.88871    
     52700   0.91940463     179.2839       18.689724      197.97363      0.95291707     0.86215328     0.99225965     767.99313    
     52800   0.94629623     184.52776      17.991436      202.5192       0.97054294     0.8444391      0.97479614     765.9066     
     52900   1.0697541      208.60204      18.997569      227.59961      1.0878742      0.83794347     0.98233525     762.82119    
     53000   1.0553753      205.79818      21.175387      226.97357      1.0671421      0.87836496     1.0190929      759.44009    
     53100   0.93110637     181.56574      24.273457      205.8392       0.93480474     0.93773153     1.0596071      757.59278    
     53200   0.9532866      185.89089      25.011333      210.90222      0.95138379     0.94194902     1.0642737      759.16468    
     53300   1.0152727      197.97817      22.777721      220.75589      1.013423       0.86828605     0.99783352     763.8495     
     53400   1.0265218      200.17175      20.274813      220.44656      1.0334212      0.8164096      0.94999448     768.20557    
     53500   0.95689057     186.59366      19.54209       206.13575      0.97792416     0.78474479     0.91461851     769.5022     
     53600   0.81799817     159.50964      21.594833      181.10448      0.84834712     0.77527406     0.89156048     765.83375    
     53700   0.89209849     173.9592       27.701165      201.66037      0.92917815     0.90880119     1.0385749      757.39527    
     53800   0.97891298     190.88803      33.528484      224.41652      1.0137028      1.0341965      1.1753464      751.87336    
     53900   0.98599201     192.26844      29.158957      221.4274       1.0215677      1.0122211      1.1538367      755.9257     
     54000   0.9455403      184.38036      16.686791      201.06715      0.98864691     0.79389094     0.93111508     767.30804    
     54100   0.89151497     173.84542      11.691924      185.53734      0.93325917     0.66948787     0.79812532     774.2653     
     54200   0.93573542     182.46841      16.74359       199.212        0.96655758     0.7835448      0.91435281     770.08252    
     54300   1.0719617      209.03252      27.188943      236.22147      1.0841214      1.0133395      1.1557842      762.50647    
     54400   1.0316585      201.17341      27.764391      228.9378       1.0388659      0.96102143     1.0962932      763.01455    
     54500   0.94553875     184.38006      19.497195      203.87725      0.96554609     0.75763851     0.88587725     768.29317    
     54600   0.9471215      184.68869      14.505866      199.19456      0.98297698     0.67213045     0.80678271     767.3363     
     54700   0.96566286     188.30426      18.849352      207.15361      1.0090166      0.84020046     0.98202023     756.85916    
     54800   0.95503476     186.23178      30.810902      217.04268      0.99781018     1.076823       1.2189264      746.82631    
     54900   0.94149356     183.59124      31.640582      215.23183      0.99079077     1.0556536      1.1982178      748.5081     
     55000   0.97281022     189.69799      20.978449      210.67644      1.0370436      0.83010673     0.98027674     760.17695    
     55100   1.0442837      203.63532      14.165646      217.80097      1.1207271      0.66818809     0.83014093     770.21016    
     55200   0.93346079     182.02485      15.342817      197.36767      0.99948717     0.6808326      0.82469561     770.35011    
     55300   0.87918714     171.44149      24.268128      195.70962      0.92946656     0.91260463     1.0450056      762.02       
     55400   0.94765541     184.7928       33.411721      218.20453      0.98348801     1.0923728      1.2289311      756.96008    
     55500   1.0175351      198.41935      30.597372      229.01672      1.0444673      1.0428726      1.1837135      764.05063    
     55600   0.98561698     192.19531      22.951091      215.1464       1.0076049      0.8392849      0.97140384     779.84981    
     55700   0.95691462     186.59835      18.982931      205.58128      0.97784151     0.74763766     0.87366803     792.7392     
     55800   0.9642752      188.03366      22.290641      210.3243       0.97853391     0.79366235     0.917448       797.1584     
     55900   1.0015206      195.29652      28.343956      223.64047      1.0042656      0.87557684     0.99983846     796.33033    
     56000   1.0414025      203.07349      28.982871      232.05636      1.038532       0.93134027     1.0585428      795.71081    
     56100   1.0076088      196.48372      24.251831      220.73555      1.0105865      0.86478541     0.98959036     798.19042    
     56200   0.9092476      177.30328      19.087416      196.3907       0.92626141     0.75974418     0.87742355     799.55654    
     56300   0.93593872     182.50805      17.826574      200.33463      0.96987434     0.79710982     0.92510724     794.27483    
     56400   1.0276258      200.38703      20.540922      220.92795      1.0773921      0.90559374     1.0523594      785.53011    
     56500   0.98266751     191.62017      23.523158      215.14332      1.0364191      0.92703821     1.0706541      780.21087    
     56600   0.86575088     168.82142      23.710332      192.53175      0.91829143     0.86678371     0.9954338      779.15198    
     56700   0.89941188     175.38532      24.314179      199.6995       0.95046403     0.84825777     0.98075035     778.16164    
     56800   0.96625953     188.42061      24.541285      212.96189      1.0128883      0.89492342     1.034448       776.60642    
     56900   0.99235234     193.50871      22.382488      215.89119      1.0336698      0.89033367     1.0310672      777.04678    
     57000   0.93201316     181.74257      21.330379      203.07295      0.96395729     0.8651613      0.99437973     779.27676    
     57100   0.83163793     162.1694       23.169406      185.3388       0.85063145     0.85746174     0.96889157     781.34927    
     57200   0.95480903     186.18776      24.627967      210.81573      0.96685662     0.86453595     0.98873435     781.8235     
     57300   1.0367052      202.15751      23.479208      225.63672      1.0451109      0.86496455     0.99810958     781.55364    
     57400   1.0042797      195.83455      21.413795      217.24834      1.0116004      0.83072204     0.9594891      780.97892    
     57500   0.94333087     183.94952      22.448092      206.39761      0.94607742     0.82854034     0.94837375     778.17338    
     57600   0.96802403     188.76469      26.997843      215.76253      0.96258015     0.9197959      1.0405065      772.68526    
     57700   1.1108466      216.61508      30.809582      247.42467      1.1004147      1.0344336      1.1718746      769.83184    
     57800   1.0635606      207.39431      28.901577      236.29589      1.0584976      0.95106614     1.0834259      776.25933    
[...]
   2385900   0.95414772     186.05881      186.80234      372.86114      0.96003747     9.4132014      9.6661513      376.48637    
   2386000   0.97226956     189.59257      178.18586      367.77842      0.98944509     9.3149918      9.5814419      376.48637    
   2386100   0.99804704     194.61917      184.98186      379.60103      0.96625126     9.2931413      9.5281895      376.48637    
   2386200   1.0193215      198.76769      182.72934      381.49703      0.97393897     8.9655488      9.1955609      376.48637    
   2386300   1.0285421      200.56571      173.62283      374.18854      1.0050187      8.7531553      9.0025794      376.48637    
   2386400   1.0192367      198.75115      175.07265      373.82379      1.0000709      8.9591105      9.2095037      376.48637    
   2386500   0.99595175     194.21059      181.29473      375.50532      0.97883534     9.1674331      9.4133601      376.48637    
   2386600   0.97076974     189.3001       180.31803      369.61813      0.9821689      9.0612332      9.3227974      376.48637    
   2386700   0.96921971     188.99784      176.00612      365.00396      0.99688476     9.2775122      9.551332       376.48637    
   2386800   0.97435553     189.99933      182.28445      372.28378      0.97545757     9.5910969      9.8455809      376.48637    
   2386900   0.98169633     191.43078      179.80963      371.24041      0.98390385     9.6802077      9.9374628      376.48637    
   2387000   0.96897248     188.94963      172.55723      361.50687      1.0086555      9.4675361      9.7506445      376.48637    
   2387100   0.92954324     181.26093      183.51746      364.77839      0.97124876     9.6766176      9.9510365      376.48637    
   2387200   0.88100611     171.79619      204.0345       375.83069      0.90122547     10.05526       10.300323      376.48637    
   2387300   0.86121517     167.93696      209.15233      377.08929      0.88375812     10.384048      10.625767      376.48637    
   2387400   0.85916499     167.53717      207.92387      375.46105      0.88795069     10.403389      10.649433      376.48637    
   2387500   0.87119255     169.88255      208.75859      378.64114      0.8851025      10.155284      10.392882      376.48637    
   2387600   0.89592789     174.70594      192.49764      367.20358      0.94060018     9.6510347      9.9190123      376.48637    
   2387700   0.92246852     179.88136      174.8203       354.70166      1.0009322      8.9256615      9.2268457      376.48637    
   2387800   0.94739415     184.74186      168.0683       352.81016      1.0239768      8.7259234      9.032132       376.48637    
   2387900   0.96124701     187.44317      163.98255      351.42572      1.0379212      8.8722134      9.1820991      376.48637    
   2388000   0.96346577     187.87582      170.27504      358.15086      1.0164452      9.0755694      9.3675923      376.48637    
   2388100   0.96087431     187.37049      183.48064      370.85113      0.97137544     9.3764072      9.6346968      376.48637    
   2388200   0.96285659     187.75704      184.60507      372.36211      0.96753766     9.444861       9.6991372      376.48637    
   2388300   0.96177831     187.54677      177.39516      364.94193      0.9921449      9.2917712      9.5657564      376.48637    
   2388400   0.97033703     189.21572      169.18004      358.39577      1.0201827      9.325751       9.6171236      376.48637    
   2388500   0.98203371     191.49657      164.85984      356.35641      1.0349275      9.4344151      9.7312045      376.48637    
   2388600   0.97010734     189.17093      170.25961      359.43054      1.0164978      9.7215262      10.01015       376.48637    
   2388700   0.92952662     181.25769      188.85377      370.11146      0.95303725     9.9385116      10.198766      376.48637    
   2388800   0.90900151     177.25529      195.65651      372.9118       0.92981991     10.012426      10.265243      376.48637    
   2388900   0.92626392     180.62146      182.99901      363.62047      0.97301874     9.5242474      9.8017422      376.48637    
   2389000   0.95474742     186.17575      176.64467      362.82042      0.99470595     9.1092948      9.3889147      376.48637    
   2389100   0.98083227     191.26229      181.60433      372.86662      0.97777936     9.1328891      9.3858254      376.48637    
   2389200   1.01036        197.02019      172.6295       369.64969      1.0084099      9.1186633      9.380144       376.48637    
   2389300   1.0231153      199.50749      163.40561      362.9131       1.03989        9.0182232      9.2975967      376.48637    
   2389400   1.0041366      195.80664      174.2739       370.08054      1.0027975      9.075069       9.3354052      376.48637    
   2389500   0.96858288     188.87366      184.83902      373.71268      0.96673947     9.210571       9.46126        376.48637    
   2389600   0.94050373     183.39823      184.79619      368.19442      0.96688527     9.0786718      9.3440178      376.48637    
   2389700   0.93676565     182.6693       182.6549       365.32421      0.97419342     9.0547845      9.3277542      376.48637    
   2389800   0.95066305     185.37929      181.71601      367.09531      0.97739761     9.1796981      9.4479633      376.48637    
   2389900   0.96307337     187.79931      183.7586       371.55791      0.97042649     8.996849       9.2532611      376.48637    
   2390000   0.96152136     187.49667      184.301        371.79767      0.96857546     8.9394585      9.1952339      376.48637    
   2390100   0.96715373     188.59498      183.49731      372.09229      0.9713183      9.1222716      9.3772643      376.48637    
   2390200   0.99275565     193.58735      183.29472      376.88207      0.97201025     9.2573248      9.4995956      376.48637    
   2390300   1.0388275      202.57137      177.19098      379.76235      0.99284189     9.1319487      9.3665689      376.48637    
   2390400   1.0667472      208.0157       170.78224      378.79794      1.0147145      9.1343349      9.3715166      376.48637    
   2390500   1.0395342      202.70916      173.7627       376.47186      1.0045424      9.1789017      9.4222618      376.48637    
   2390600   0.9843294      191.94423      185.20085      377.14508      0.9655049      9.3256356      9.567208       376.48637    
   2390700   0.96871881     188.90017      188.35284      377.253        0.95474744     9.5297564      9.7710422      376.48637    
   2390800   1.008624       196.68168      175.19669      371.87837      0.99964843     9.3844724      9.6400336      376.48637    
   2390900   1.045112       203.79683      163.85418      367.65101      1.0383601      8.8832081      9.1499978      376.48637    
   2391000   1.0361669      202.05255      161.92946      363.98201      1.0449292      8.6094499      8.885985       376.48637    
   2391100   1.0046256      195.90199      166.14028      362.04226      1.030558       8.5227643      8.8044518      376.48637    
   2391200   0.98528372     192.13033      172.03083      364.16116      1.0104535      8.845843       9.1219023      376.48637    
   2391300   0.99444303     193.91639      180.46598      374.38238      0.98166496     9.4205766      9.6694872      376.48637    
   2391400   1.0329693      201.42901      184.58236      386.01137      0.96761623     9.4743675      9.6923901      376.48637    
   2391500   1.0839778      211.37568      172.88282      384.25849      1.007546       9.3695866      9.5922648      376.48637    
   2391600   1.1125259      216.94255      155.59662      372.53917      1.0665426      8.9597392      9.2135451      376.48637    
   2391700   1.106832       215.83225      153.79265      369.6249       1.0726997      8.724543       8.9860897      376.48637    
   2391800   1.0835823      211.29855      164.51034      375.80889      1.036121       8.9410599      9.1861814      376.48637    
   2391900   1.0510531      204.95536      173.37534      378.3307       1.0058651      9.1760886      9.4145119      376.48637    
   2392000   1.0002796      195.05452      176.99027      372.04479      0.99352702     9.1784583      9.4335775      376.48637    
   2392100   0.93896696     183.09856      182.39853      365.49709      0.97506888     9.268388       9.5408989      376.48637    
   2392200   0.89504294     174.53337      188.51128      363.04465      0.9542064      9.7743841      10.053409      376.48637    
   2392300   0.88064156     171.7251       192.3369       364.06201      0.94114934     10.116364      10.392687      376.48637    
   2392400   0.88674036     172.91437      199.69341      372.60778      0.91604195     10.211998      10.465622      376.48637    
   2392500   0.88794612     173.14949      202.94182      376.09131      0.90495557     9.8985019      10.142873      376.48637    
   2392600   0.87918652     171.44137      195.08152      366.52289      0.93178202     9.4819306      9.7517166      376.48637    
   2392700   0.86099773     167.89456      195.18047      363.07503      0.93144451     9.2315013      9.5104455      376.48637    
   2392800   0.86465215     168.60717      197.72031      366.32748      0.92277621     9.3836889      9.6539942      376.48637    
   2392900   0.9001419      175.52767      196.84572      372.37339      0.92576119     9.6018477      9.8560943      376.48637    
   2393000   0.94449459     184.17645      191.71005      375.88649      0.94328931     9.6919906      9.9369061      376.48637    
   2393100   0.97403507     189.93684      183.35475      373.29159      0.97180526     9.6029995      9.8548071      376.48637    
   2393200   0.98416452     191.91208      182.51293      374.42501      0.97467853     9.5625131      9.8113102      376.48637    
   2393300   0.97896172     190.89754      183.36205      374.25958      0.97178082     9.514059       9.7632957      376.48637    
   2393400   0.96409434     187.9984       181.07128      369.06968      0.97959897     9.5598551      9.8228768      376.48637    
   2393500   0.95727179     186.668        180.81993      367.48793      0.98045679     9.5179318      9.7851549      376.48637    
   2393600   0.96438527     188.05513      185.97931      374.03444      0.96284822     9.4383053      9.6881401      376.48637    
   2393700   0.987938       192.64791      188.56885      381.21676      0.95401059     9.5250105      9.7557683      376.48637    
   2393800   1.0350465      201.83407      178.84629      380.68036      0.98719277     9.4086787      9.6408609      376.48637    
   2393900   1.067083       208.08118      172.59996      380.68113      1.0085114      9.4067508      9.6389309      376.48637    
   2394000   1.0591518      206.53459      172.2298       378.7644       1.0097748      9.3109149      9.5481863      376.48637    
   2394100   1.0214084      199.17464      172.11838      371.29302      1.0101551      9.2981917      9.5553081      376.48637    
   2394200   0.99126283     193.29625      174.14188      367.43813      1.0032489      9.3790149      9.6463702      376.48637    
   2394300   0.96935775     189.02476      180.99413      370.01889      0.97986245     9.5745546      9.8350553      376.48637    
   2394400   0.94770919     184.80329      187.46061      372.26391      0.95779265     9.4687829      9.7233205      376.48637    
   2394500   0.92040262     179.47851      192.83263      372.31114      0.93945806     9.3636775      9.6180896      376.48637    
   2394600   0.89860033     175.22706      196.69256      371.91962      0.92628435     9.2670988      9.5225509      376.48637    
   2394700   0.90167343     175.82632      191.56159      367.3879       0.94379641     9.151729       9.4192182      376.48637    
   2394800   0.91611801     178.64301      177.15066      355.79367      0.99297976     9.0584231      9.3567076      376.48637    
   2394900   0.9268087      180.7277       172.89788      353.62558      1.0074945      9.2143499      9.5183933      376.48637    
   2395000   0.94024124     183.34704      177.42692      360.77397      0.99203711     9.6304394      9.9154957      376.48637    
   2395100   0.94389283     184.0591       182.42617      366.48527      0.97497492     9.7198158      9.9897022      376.48637    
   2395200   0.95057737     185.36259      181.12213      366.48472      0.97942556     9.3933888      9.6632767      376.48637    
   2395300   0.98310819     191.7061       175.94508      367.65118      0.99709427     9.545351       9.8121403      376.48637    
   2395400   1.0188344      198.6727       172.63741      371.31011      1.0083831      9.4688449      9.7259154      376.48637    
   2395500   1.0293454      200.72236      168.82458      369.54694      1.0213959      9.143306       9.4050595      376.48637    
   2395600   1.0146677      197.86021      172.99653      370.85673      1.0071575      9.0093936      9.2676683      376.48637    
   2395700   0.99212887     193.46513      180.12595      373.59108      0.98282505     9.0004511      9.2514631      376.48637    
   2395800   0.98441829     191.96157      180.37691      372.33848      0.98196889     8.9096674      9.1640068      376.48637    
   2395900   1.0066399      196.29479      173.53952      369.8343       1.0053045      8.7806263      9.041617       376.48637    
   2396000   1.0307262      200.99161      167.60164      368.59325      1.02557        8.8046826      9.0689695      376.48637    
   2396100   1.0259338      200.05709      169.1715       369.22858      1.0202125      9.0702116      9.3328111      376.48637    
   2396200   1.0000959      195.0187       173.92552      368.94423      1.0039875      9.0387909      9.3021461      376.48637    
   2396300   1.0010282      195.2005       174.71157      369.91207      1.0013044      8.8449552      9.1057394      376.48637    
   2396400   1.0247505      199.82635      177.36279      377.18914      0.99225604     8.6841163      8.9255717      376.48637    
   2396500   1.0338946      201.60944      175.64927      377.25871      0.99810434     8.9940704      9.2353411      376.48637    
   2396600   1.0212815      199.1499       170.17067      369.32057      1.016802       9.0599895      9.3223445      376.48637    
   2396700   0.9915449      193.35126      176.24396      369.59521      0.99607441     8.9312708      9.1928966      376.48637    
   2396800   0.96500497     188.17597      184.20807      372.38404      0.96889289     9.1529439      9.4071619      376.48637    
   2396900   0.94591327     184.45309      192.28753      376.74062      0.94131833     9.4654757      9.7081224      376.48637    
   2397000   0.94859053     184.97515      192.04179      377.01694      0.94215721     9.6485605      9.8904734      376.48637    
   2397100   0.97031537     189.2115       179.87386      369.08536      0.9836853      9.512809       9.7757887      376.48637    
   2397200   0.99317007     193.66816      176.50505      370.17321      0.99518292     9.471173       9.7312632      376.48637    
   2397300   1.0047726      195.93066      181.61865      377.54931      0.97773086     9.5128991      9.7533978      376.48637    
   2397400   0.99835594     194.67941      181.85471      376.53412      0.9769249      9.6664116      9.9096066      376.48637    
   2397500   0.97556475     190.23513      184.58819      374.82332      0.96759583     9.5030144      9.7507536      376.48637    
   2397600   0.97617067     190.35328      184.02884      374.38212      0.96950506     9.1281352      9.3770465      376.48637    
   2397700   1.0010557      195.20587      177.57637      372.78225      0.99152692     8.9496409      9.2028015      376.48637    
   2397800   1.0306385      200.97451      174.64458      375.61909      1.0015328      8.9393464      9.1849717      376.48637    
   2397900   1.0530491      205.34457      177.70451      383.04909      0.99108987     8.7660842      8.9919748      376.48637    
   2398000   1.0632517      207.33407      175.56431      382.89838      0.99839414     8.7482182      8.974509       376.48637    
   2398100   1.0473333      204.23         175.46678      379.69678      0.99872697     9.0965982      9.3313929      376.48637    
   2398200   1.0139944      197.72892      181.97316      379.70208      0.97652112     9.2080567      9.4428375      376.48637    
   2398300   0.99816504     194.64218      183.47889      378.12107      0.97138218     9.1945925      9.4335727      376.48637    
   2398400   1.0167765      198.27142      177.98309      376.25451      0.99013899     9.2527836      9.4967215      376.48637    
   2398500   1.0578563      206.28197      169.96812      376.25009      1.0174939      9.3330879      9.5770377      376.48637    
   2398600   1.097299       213.9733       164.06027      378.03356      1.0376569      9.0167115      9.2559239      376.48637    
   2398700   1.1121562      216.87047      166.35035      383.22081      1.0298415      8.7628845      8.9883193      376.48637    
   2398800   1.1071149      215.8874       166.03265      381.92005      1.0309256      8.653071       8.8819605      376.48637    
   2398900   1.0817257      210.93651      169.97622      380.91273      1.0174663      8.8208236      9.0523888      376.48637    
   2399000   1.0472281      204.20949      177.14639      381.35588      0.99299517     9.0208905      9.251279       376.48637    
   2399100   1.0317397      201.18924      176.26785      377.45709      0.995993       9.1880422      9.4287859      376.48637    
   2399200   1.0284088      200.53972      183.14529      383.68501      0.97252085     9.4872225      9.7114242      376.48637    
   2399300   1.0344332      201.71448      192.77846      394.49293      0.93964347     9.813882       10.009377      376.48637    
   2399400   1.0571706      206.14827      186.9043       393.05257      0.9596921      9.428624       9.6279447      376.48637    
   2399500   1.0988463      214.27503      161.50245      375.77748      1.046387       8.809506       9.0547111      376.48637    
   2399600   1.127398       219.84262      149.0079       368.85052      1.0890302      8.6104927      8.8740964      376.48637    
   2399700   1.1148817      217.40193      163.1257       380.52762      1.0408476      8.8997603      9.1323489      376.48637    
   2399800   1.0960046      213.7209       171.02585      384.74676      1.0138848      9.0628896      9.2842717      376.48637    
   2399900   1.0775728      210.1267       168.85092      378.97762      1.0213072      8.8909242      9.1276295      376.48637    
   2400000   1.0513163      205.00668      176.93815      381.94483      0.99370598     8.9254892      9.1543133      376.48637    
Loop time of 62.2404 on 4 procs for 200000 steps with 196 atoms

Performance: 27763.313 tau/day, 3213.346 timesteps/s, 629.816 katom-step/s
100.0% CPU use with 4 MPI tasks x 1 OpenMP threads

MPI task timing breakdown:
Section |  min time  |  avg time  |  max time  |%varavg| %total
---------------------------------------------------------------
Pair    | 18.389     | 18.77      | 19.648     |  11.8 | 30.16
Neigh   | 0.0016457  | 0.001665   | 0.0016792  |   0.0 |  0.00
Comm    | 17.684     | 18.66      | 19.183     |  13.5 | 29.98
Output  | 0.65351    | 0.67863    | 0.70348    |   2.2 |  1.09
Modify  | 23.222     | 23.487     | 23.605     |   3.2 | 37.74
Other   |            | 0.6432     |            |       |  1.03

Nlocal:             49 ave          52 max          46 min
Histogram: 1 0 0 1 0 0 1 0 0 1
Nghost:          541.5 ave         547 max         536 min
Histogram: 1 0 0 0 1 1 0 0 0 1
Neighs:         316.75 ave         333 max         296 min
Histogram: 1 0 0 1 0 0 0 0 0 2

Total # of neighbors = 1267
Ave neighs/atom = 6.4642857
Neighbor list builds = 53
Dangerous builds = 0
unfix 1
undump mydump
unfix 1rdf
Total wall time: 0:08:36
