LAMMPS data file for polygons
4 atoms
4 bodies
1 atom types
0 6 xlo xhi
0 6 ylo yhi
-0.5 0.5 zlo zhi

Atoms

1 1 1 1 1 1 0
2 1 1 1 4 4 0
3 1 1 1 1 4 0
4 1 1 1 4 1 0

Bodies

1 1 25
6
20 20 0.160375075 0 0 0
0.6204032394013997 0.0 0.0 
0.3102016197006999 0.5372849659117709 0.0 
-0.31020161970069976 0.537284965911771 0.0 
-0.6204032394013997 7.597748413135733e-17 0.0 
-0.31020161970070015 -0.5372849659117708 0.0 
0.3102016197006995 -0.5372849659117712 0.0 
0.3
2 1 25
6
20 20 0.160375075 0 0 0
0.6204032394013997 0.0 0.0 
0.3102016197006999 0.5372849659117709 0.0 
-0.31020161970069976 0.537284965911771 0.0 
-0.6204032394013997 7.597748413135733e-17 0.0 
-0.31020161970070015 -0.5372849659117708 0.0 
0.3102016197006995 -0.5372849659117712 0.0 
0.3
3 1 25
6
20 20 0.160375075 0 0 0
0.6204032394013997 0.0 0.0 
0.3102016197006999 0.5372849659117709 0.0 
-0.31020161970069976 0.537284965911771 0.0 
-0.6204032394013997 7.597748413135733e-17 0.0 
-0.31020161970070015 -0.5372849659117708 0.0 
0.3102016197006995 -0.5372849659117712 0.0 
0.3
4 1 25
6
20 20 0.160375075 0 0 0
0.6204032394013997 0.0 0.0 
0.3102016197006999 0.5372849659117709 0.0 
-0.31020161970069976 0.537284965911771 0.0 
-0.6204032394013997 7.597748413135733e-17 0.0 
-0.31020161970070015 -0.5372849659117708 0.0 
0.3102016197006995 -0.5372849659117712 0.0 
0.3