LAMMPS (2 Aug 2023 - Update 1)
OMP_NUM_THREADS environment is not set. Defaulting to 1 thread. (src/comm.cpp:98)
  using 1 OpenMP thread(s) per MPI task
# 2d rounded polygon bodies

variable    r     index 7
variable    steps index 200000
variable    T     index 1
variable    P     index 0.1

include ./seed.lammps
variable    seed  index 3241

units       lj
dimension   2

atom_style  body rounded/polygon 1 6
atom_modify map array
read_data   data.2d
Reading data file ...
  orthogonal box = (0 0 -0.5) to (6 6 0.5)
  2 by 2 by 1 MPI processor grid
  reading atoms ...
  4 atoms
  4 bodies
  read_data CPU = 0.001 seconds

replicate   $r $r 1
replicate   7 $r 1
replicate   7 7 1
Replication is creating a 7x7x1 = 49 times larger system...
  orthogonal box = (0 0 -0.5) to (42 42 0.5)
  2 by 2 by 1 MPI processor grid
  196 atoms
  replicate CPU = 0.001 seconds
change_box all x final -21.0 21.0 y final -21.0 21.0
Changing box ...
  orthogonal box = (-21 0 -0.5) to (21 42 0.5)
  orthogonal box = (-21 -21 -0.5) to (21 21 0.5)

variable cut_inner  equal 0.0
variable k_n        equal 300
variable k_na       equal 0
variable c_n        equal 0
variable c_t        equal 0
variable mu         equal 0.0
variable delta_ua   equal 1.0

pair_style body/rounded/polygon ${c_n} ${c_t} ${mu} ${delta_ua} ${cut_inner}
pair_style body/rounded/polygon 0 ${c_t} ${mu} ${delta_ua} ${cut_inner}
pair_style body/rounded/polygon 0 0 ${mu} ${delta_ua} ${cut_inner}
pair_style body/rounded/polygon 0 0 0 ${delta_ua} ${cut_inner}
pair_style body/rounded/polygon 0 0 0 1 ${cut_inner}
pair_style body/rounded/polygon 0 0 0 1 0
pair_coeff * * ${k_n} ${k_na}
pair_coeff * * 300 ${k_na}
pair_coeff * * 300 0

comm_modify vel yes cutoff 12

neighbor     1.2 bin
neigh_modify every 1 delay 0 check yes

timestep     0.0001

fix          2 all enforce2d

# minimize 0.0 0 1000 100000

compute 10 all property/atom x y z quatw quati quatj quatk
dump mydump0 all custom 100 dump.quat id type c_10[1] c_10[2] c_10[3] c_10[4] c_10[5] c_10[6] c_10[7]
compute myRDF all rdf 1000 cutoff 10.0
compute 1 all temp/body
compute 1p all pressure 1
velocity    all create $T ${seed} dist gaussian mom yes rot yes
velocity    all create 1 ${seed} dist gaussian mom yes rot yes
velocity    all create 1 3241 dist gaussian mom yes rot yes

thermo_style custom step temp ke pe etotal c_1 press c_1p vol
thermo       100
thermo_modify norm no


fix          1 all npt/body temp $T $T 0.01 x 1 1 0.1 y 1 1 0.1 couple xy
fix          1 all npt/body temp 1 $T 0.01 x 1 1 0.1 y 1 1 0.1 couple xy
fix          1 all npt/body temp 1 1 0.01 x 1 1 0.1 y 1 1 0.1 couple xy
run          ${steps}
run          200000
Generated 0 of 0 mixed pair_coeff terms from geometric mixing rule
Neighbor list info ...
  update: every = 1 steps, delay = 0 steps, check = yes
  max neighbors/atom: 2000, page size: 100000
  master list distance cutoff = 2.4408065
  ghost atom cutoff = 12
  binsize = 1.2204032, bins = 35 35 1
  2 neighbor lists, perpetual/occasional/extra = 1 1 0
  (1) pair body/rounded/polygon, perpetual
      attributes: half, newton on
      pair build: half/bin/atomonly/newton
      stencil: half/bin/2d
      bin: standard
  (2) compute rdf, occasional
      attributes: half, newton on, cut 11.2
      pair build: half/bin/atomonly/newton
      stencil: half/bin/2d
      bin: standard
Per MPI rank memory allocation (min/avg/max) = 6.136 | 6.136 | 6.136 Mbytes
   Step          Temp          KinEng         PotEng         TotEng          c_1           Press           c_1p          Volume    
         0   1              195            0              195            0.66552901     0.11054422     0.11054422     1764         
       100   1.2943016      252.38881      0              252.38881      0.86139527     0.15408526     0.15408526     1637.9816    
       200   1.6593159      323.5666       0              323.5666       1.1043229      0.22370842     0.22370842     1446.3765    
       300   1.6970647      330.92761      0              330.92761      1.1294458      0.25370018     0.25370018     1304.4043    
       400   1.562152       304.61964      0              304.61964      1.0396575      0.25696501     0.25696501     1185.4518    
       500   1.4981858      292.14623      0              292.14623      0.9970861      0.26718212     0.26718212     1093.4348    
       600   1.4823911      289.06626      0              289.06626      0.98657426     0.28421012     0.28421012     1017.0864    
       700   1.4951551      291.55525      0              291.55525      0.99506911     0.3065361      0.3065361      951.12861    
       800   1.4901989      290.58879      0              290.58879      0.9917706      0.32519911     0.32519911     893.5719     
       900   1.4489698      282.54912      0              282.54912      0.96433146     0.33528744     0.33528744     842.70714    
      1000   1.413831       275.69704      0              275.69704      0.94094553     0.34587224     0.34587224     797.1066     
      1100   1.3931504      271.66433      0              271.66433      0.92718202     0.35936425     0.35936425     755.95815    
      1200   1.4703096      286.71037      0.058377224    286.76874      0.9785337      0.40751755     0.40751756     718.84543    
      1300   1.6389855      319.60218      2.2023143      321.8045       1.0908652      0.53714085     0.53717189     686.54235    
      1400   1.5516766      302.57693      8.731949       311.30888      1.0340222      0.69283852     0.6934313      660.54261    
      1500   1.4070321      274.37126      21.169879      295.54114      0.94255379     0.98498958     0.98778933     641.84124    
      1600   1.426109       278.09125      33.309868      311.40112      0.96570913     1.3513742      1.3590414      634.07444    
      1700   1.4861385      289.79701      31.138483      320.9355       1.0212934      1.4387033      1.4534369      640.84678    
      1800   1.4696514      286.58201      17.586872      304.16889      1.0235035      1.1373178      1.1575475      657.67368    
      1900   1.3990921      272.82296      9.6338917      282.45686      0.98170121     0.85041188     0.87246251     671.8853     
      2000   1.2620061      246.09118      7.9369235      254.0281       0.88985441     0.78894034     0.81059509     675.88673    
      2100   1.319095       257.22352      11.359188      268.58271      0.93571217     1.0295         1.0546831      672.68002    
      2200   1.448443       282.44638      17.061549      299.50793      1.0359007      1.2796631      1.3109546      673.42823    
      2300   1.4074409      274.45098      16.207888      290.65887      1.0150191      1.1748081      1.2083395      684.4221     
      2400   1.3302868      259.40593      12.627502      272.03343      0.96558365     0.96370371     0.99733858     698.97931    
      2500   1.385086       270.09176      12.892564      282.98433      1.0096001      0.93889353     0.97518418     708.75216    
      2600   1.4786674      288.34014      16.561814      304.90196      1.0820343      1.0489779      1.0891278      714.71855    
      2700   1.3510547      263.45566      19.562225      283.01788      0.99312052     1.0716159      1.1097267      722.33238    
      2800   1.2119125      236.32294      19.455632      255.77857      0.89519317     1.0004527      1.0359301      731.97789    
      2900   1.3677145      266.70432      18.305771      285.01009      1.0142191      1.0025951      1.0437275      740.58128    
      3000   1.4312427      279.09232      16.668801      295.76112      1.0652535      0.97724434     1.0213782      748.33517    
      3100   1.3101167      255.47276      15.642062      271.11482      0.9801613      0.92728595     0.96931308     754.61965    
      3200   1.2302172      239.89235      16.776569      256.66892      0.92692434     0.94031705     0.98213689     757.92937    
      3300   1.340564       261.40998      18.944594      280.35457      1.0190268      0.97818014     1.0271011      759.69119    
      3400   1.4021359      273.4165       20.741215      294.15772      1.0755079      0.98610436     1.0408136      762.34513    
      3500   1.2970129      252.91752      22.286326      275.20385      1.003836       0.94096353     0.99474421     766.19377    
      3600   1.2421434      242.21797      23.779966      265.99794      0.96882778     0.91547264     0.96963565     768.94859    
      3700   1.2653544      246.74411      25.444935      272.18905      0.99192177     0.95328592     1.0103005      769.78498    
      3800   1.3175291      256.91817      25.861439      282.77961      1.0368907      1.0143558      1.0751625      771.145      
      3900   1.4150231      275.92951      24.50828       300.43779      1.1177548      1.0314766      1.0979256      776.12421    
      4000   1.3468019      262.62638      20.679222      283.3056       1.0672691      0.94153437     1.0053342      785.00977    
      4100   1.1826146      230.60984      17.078005      247.68785      0.9370162      0.82081324     0.87628151     792.09081    
      4200   1.2198899      237.87852      15.808131      253.68665      0.96261953     0.84916738     0.90496779     791.55336    
      4300   1.3613218      265.45775      16.043101      281.50085      1.0689538      0.94508112     1.005807       786.24987    
      4400   1.3395285      261.20806      16.024324      277.23238      1.0490686      0.94667926     1.0057223      781.95605    
      4500   1.1580644      225.82255      15.424854      241.24741      0.90671735     0.89414322     0.94532071     778.57735    
      4600   1.2297949      239.81         14.576541      254.38654      0.96251975     0.91658357     0.97116209     773.34974    
      4700   1.3409037      261.47622      14.200286      275.67651      1.0487544      0.93950421     0.99917524     767.68925    
      4800   1.3243952      258.25706      14.375608      272.63267      1.0359062      0.90450848     0.96383929     762.89976    
      4900   1.1791233      229.92905      15.964853      245.8939       0.92290614     0.88540445     0.9388667      757.21557    
      5000   1.1950603      233.03677      19.327124      252.36389      0.93618204     0.94009507     0.99512841     749.81038    
      5100   1.2858803      250.74666      21.898085      272.64475      1.0086664      1.0412389      1.1014518      743.90331    
      5200   1.2916326      251.86836      20.257406      272.12577      1.0156519      1.020586       1.0820652      743.62835    
      5300   1.2590287      245.5106       15.583862      261.09446      0.99211834     0.90078347     0.9612506      747.184      
      5400   1.2255917      238.99039      12.8248        251.81519      0.96629183     0.82752185     0.88648901     748.43557    
      5500   1.2486307      243.48298      14.103979      257.58696      0.98401862     0.88223936     0.94248138     744.2392     
      5600   1.355771       264.37535      17.242784      281.61814      1.0696334      0.98942599     1.0558586      737.99972    
      5700   1.3277451      258.9103       18.637157      277.54746      1.0515751      0.9768334      1.0437734      735.00445    
      5800   1.1697816      228.10741      18.045055      246.15247      0.93218095     0.87676789     0.93809058     734.17523    
      5900   1.195614       233.14474      16.783949      249.92869      0.95947193     0.85935741     0.92501557     730.76273    
      6000   1.2896293      251.47772      16.164958      267.64268      1.0410957      0.89512881     0.969095       724.15942    
      6100   1.2819286      249.97608      18.096684      268.07277      1.0385351      1.0051109      1.0808481      717.14637    
      6200   1.231485       240.13958      21.710554      261.85013      1.0003016      1.0671408      1.1412293      714.6702     
      6300   1.1944458      232.91693      22.457528      255.37446      0.97535709     1.0441099      1.1176133      719.187      
      6400   1.2106593      236.07857      18.982318      255.06089      0.99822944     0.95584671     1.0332022      729.13615    
      6500   1.305573       254.58673      15.340955      269.92769      1.0888607      0.88096855     0.96803516     740.23151    
      6600   1.2785884      249.32474      14.506502      263.83124      1.0768744      0.82651291     0.91492151     748.7898     
      6700   1.0591985      206.54371      16.314364      222.85808      0.89943677     0.80591095     0.88169624     752.00954    
      6800   1.0969053      213.89653      20.104109      234.00064      0.93613229     0.90638707     0.98697908     749.33276    
      6900   1.2105416      236.05561      21.962783      258.01839      1.034302       0.99089341     1.0806744      746.20358    
      7000   1.2189786      237.70083      18.504426      256.20526      1.0403052      0.95632118     1.0461353      747.1943     
      7100   1.1387813      222.06235      14.514332      236.57669      0.9692883      0.86217711     0.94472338     750.35635    
      7200   1.075658       209.7533       15.581861      225.33516      0.91388324     0.830395       0.9076824      750.63325    
      7300   1.1842618      230.93105      21.453112      252.38416      1.0068358      0.8962106      0.98204825     746.43058    
      7400   1.2781232      249.23403      27.466147      276.70018      1.09159        0.96045833     1.055669       741.53301    
      7500   1.1606804      226.33267      30.057334      256.39001      0.99944097     0.96073514     1.0506512      739.61814    
      7600   1.0759479      209.80984      29.628295      239.43813      0.93284536     0.93206884     1.0178374      740.52589    
      7700   1.141187       222.53146      28.16235       250.69382      0.99031293     0.92539393     1.0164587      742.66089    
      7800   1.2517716      244.09545      26.583478      270.67893      1.0830478      0.93158094     1.0297614      745.94848    
      7900   1.1746602      229.05875      23.048448      252.1072       1.0135739      0.86845705     0.95893095     750.69607    
      8000   1.0110395      197.15271      19.174485      216.32719      0.86921755     0.7688663      0.84528412     752.80908    
      8100   1.1390111      222.10716      17.888432      239.9956       0.97175623     0.79312825     0.87696901     746.86122    
      8200   1.2809945      249.79392      19.197346      268.99126      1.0816394      0.92955503     1.0209134      734.75969    
      8300   1.2320835      240.25628      21.5126        261.76888      1.0305948      1.0280136      1.1132683      723.80714    
      8400   1.1410545      222.50564      24.134279      246.63991      0.94764044     1.0093046      1.0860601      718.5543     
      8500   1.1731998      228.77396      25.048205      253.82217      0.97089386     0.96280308     1.040389       717.88727    
      8600   1.2439843      242.57695      23.082767      265.65971      1.0299139      0.9341177      1.0163811      719.49197    
      8700   1.2426987      242.32625      19.020496      261.34674      1.0324213      0.892405       0.97575072     721.97107    
      8800   1.0508218      204.91025      16.117564      221.02781      0.87641575     0.83276845     0.90450213     723.22474    
      8900   1.0403811      202.87431      17.163266      220.03758      0.87016586     0.88483774     0.95715193     720.24988    
      9000   1.1872384      231.51149      20.013256      251.52474      0.99594        0.98940232     1.0737006      715.30448    
      9100   1.2453316      242.83967      19.389398      262.22906      1.0499944      0.99341633     1.0842186      713.73439    
      9200   1.1825765      230.60242      15.353759      245.95618      1.0027519      0.89233769     0.98058492     716.21388    
      9300   1.0868111      211.92817      13.183441      225.11161      0.92218464     0.81489478     0.89605963     717.9454     
      9400   1.150491       224.34574      14.979822      239.32556      0.97117815     0.88547791     0.96968885     714.98388    
      9500   1.3323496      259.80817      18.826159      278.63433      1.1183049      1.0238739      1.1193202      710.92521    
      9600   1.2285048      239.55843      18.75452       258.31295      1.031541       0.96049996     1.0485545      711.86606    
      9700   1.1370116      221.71725      16.007752      237.72501      0.95896977     0.88770964     0.97050244     715.77349    
      9800   1.1530797      224.85055      14.13797       238.98851      0.97725097     0.83926872     0.92481873     718.69062    
      9900   1.2437205      242.52549      14.83724       257.36273      1.0581311      0.86431149     0.95829745     718.26596    
     10000   1.3348155      260.28902      16.779571      277.06859      1.1388988      0.94254863     1.0450915      715.87954    
     10100   1.1734706      228.82678      16.655541      245.48232      1.003539       0.9216171      1.0128011      715.14941    
     10200   1.0902177      212.59246      15.275633      227.86809      0.93228777     0.90108761     0.98575081     715.39774    
     10300   1.1674877      227.6601       14.848315      242.50842      0.99433487     0.90898217     0.99802703     715.14531    
     10400   1.2668733      247.0403       14.492024      261.53233      1.0731572      0.89333827     0.98763358     714.72015    
     10500   1.1997246      233.94629      13.412701      247.35899      1.0122319      0.85990043     0.94768432     713.54371    
     10600   1.0749028      209.60605      13.520552      223.1266       0.90521562     0.86786473     0.94626803     709.43606    
     10700   1.1396322      222.22828      15.936107      238.16439      0.95863784     0.95065135     1.0341888      702.11189    
     10800   1.2202361      237.94605      17.49945       255.4455       1.0265258      1.0011193      1.0914859      695.2344     
     10900   1.22563        238.99785      15.8805        254.87834      1.0331978      0.99655114     1.0886506      691.95939    
     11000   1.1055091      215.57427      13.061157      228.63543      0.93680925     0.92630475     1.0113482      692.7147     
     11100   1.0326317      201.36318      12.729361      214.09255      0.88062399     0.8392492      0.92084692     694.37781    
     11200   1.2300192      239.85373      15.296722      255.15046      1.0542934      0.92464828     1.0242296      693.44567    
     11300   1.2211848      238.13103      17.08047       255.2115       1.052468       0.97186226     1.0731752      693.31819    
     11400   1.1100741      216.46445      14.979231      231.44368      0.96391025     0.89051753     0.98519721     696.67804    
     11500   1.0773026      210.07401      12.116097      222.19011      0.94359693     0.79292808     0.88775385     700.23036    
     11600   1.1938619      232.80307      12.000023      244.80309      1.0532927      0.80474033     0.91316614     699.20347    
     11700   1.2473224      243.22787      15.310945      258.53882      1.106003       0.93186702     1.0484055      693.59901    
     11800   1.0812281      210.83947      21.498356      232.33783      0.96326729     1.0366159      1.1402617      688.86431    
     11900   1.0563647      205.99111      23.770816      229.76193      0.9460046      1.0589913      1.1621006      690.41485    
     12000   1.1151213      217.44866      18.156353      235.60501      1.0043037      0.90433385     1.013984       700.52182    
     12100   1.1615032      226.49313      10.680643      237.17377      1.0518331      0.71122818     0.82562894     714.10344    
     12200   1.1103961      216.52723      6.9841284      223.51136      1.0076026      0.59615547     0.70525516     721.36173    
     12300   0.99599992     194.21998      8.7246801      202.94466      0.89973661     0.69704399     0.79422695     714.14615    
     12400   1.0550793      205.74047      20.687388      226.42786      0.94539798     1.1257867      1.2281782      695.96684    
     12500   1.2258779      239.04619      29.454554      268.50074      1.0958832      1.3945193      1.5139764      686.83782    
     12600   1.1488395      224.02371      16.697196      240.7209       1.0349919      1.0176725      1.1308904      699.79111    
     12700   1.0436238      203.50664      6.4307728      209.93741      0.94982153     0.57716522     0.68095025     720.63444    
     12800   1.060958       206.8868       5.25996        212.14676      0.96936648     0.54986352     0.65589155     727.52059    
     12900   1.2046948      234.91548      9.9275229      244.843        1.097637       0.72254014     0.84342733     717.13277    
     13000   1.1783372      229.77575      19.291721      249.06747      1.0688722      0.97156899     1.0907796      699.63405    
     13100   1.0633162      207.34666      24.954364      232.30102      0.96362698     1.1212276      1.2303147      687.48781    
     13200   1.0989494      214.29513      19.132387      233.42752      0.9995055      1.0685745      1.1830401      686.31932    
     13300   1.1171204      217.83847      11.161639      229.00011      1.0223309      0.82114561     0.9390748      692.82651    
     13400   1.0775587      210.12395      11.026327      221.15028      0.99069778     0.70950124     0.82456484     696.57564    
     13500   1.0273945      200.34193      16.747734      217.08966      0.94776762     0.83126653     0.94292851     692.75138    
     13600   1.0713751      208.91814      24.560059      233.4782       0.9933809      1.0296987      1.1492726      686.96009    
     13700   1.1622952      226.64757      26.204211      252.85178      1.086761       1.0997151      1.2330659      688.21019    
     13800   1.0738108      209.3931       19.632191      229.02529      1.0146575      0.91586615     1.0415725      699.2613     
     13900   0.95159247     185.56053      13.883924      199.44446      0.90631742     0.73348205     0.84588518     711.63916    
     14000   0.99754293     194.52087      12.528588      207.04946      0.95268214     0.72499823     0.84310514     716.42715    
     14100   1.046446       204.05697      14.80312       218.86009      0.99841804     0.79895765     0.92297464     713.44675    
     14200   1.0642708      207.5328       19.269987      226.80279      1.013261       0.95214325     1.0784417      707.47266    
     14300   1.0480847      204.37652      22.595192      226.97171      0.99670671     1.0462441      1.1704499      705.75258    
     14400   1.017571       198.42635      19.871966      218.29832      0.96849672     0.93601125     1.0559205      711.73165    
     14500   1.0493239      204.61816      15.881415      220.49957      0.99994946     0.78613218     0.90884761     720.09721    
     14600   1.1409123      222.4779       13.781481      236.25938      1.0869854      0.74198482     0.87460389     723.94427    
     14700   1.0879082      212.1421       12.777448      224.91955      1.0336784      0.72289101     0.84868966     721.19742    
     14800   0.9933237      193.69812      14.166774      207.8649       0.93902392     0.78988592     0.90437042     711.32678    
     14900   1.0468371      204.13323      18.70611       222.83934      0.98479929     0.98206452     1.1029329      698.3872     
     15000   1.1012472      214.74321      21.006919      235.75012      1.0344011      1.0967356      1.2244892      691.45839    
     15100   1.0618078      207.05252      18.062798      225.11532      0.99619043     0.997154       1.1192499      694.79236    
     15200   0.90727052     176.91775      14.61628       191.53403      0.8495372      0.78485964     0.88729691     702.83648    
     15300   0.9711414      189.37257      14.935495      204.30807      0.9072762      0.77988777     0.88820289     705.89735    
     15400   1.0669732      208.05977      20.567521      228.62729      0.99505742     0.89820339     1.0168199      703.88228    
     15500   1.0867555      211.91732      27.563649      239.48096      1.0132745      1.015273       1.1361371      703.03898    
     15600   1.0832741      211.23845      27.919819      239.15827      1.0123241      1.0130242      1.1335143      708.54414    
     15700   1.0668099      208.02792      21.521245      229.54917      1.002022       0.86938125     0.98824581     719.84894    
     15800   1.0571882      206.1517       14.884989      221.03669      0.99737537     0.74266043     0.86056678     730.06483    
     15900   1.0683911      208.33626      11.539476      219.87574      1.009067       0.72157412     0.840732       732.81238    
     16000   1.0715123      208.94489      13.034366      221.97926      1.0108279      0.8232298      0.94309871     727.69226    
     16100   1.03152        201.1464       17.729634      218.87603      0.97380547     0.94727619     1.0641551      720.22049    
     16200   1.000482       195.094        19.752311      214.84631      0.94834312     0.98977916     1.1053313      716.30445    
     16300   1.0709201      208.82942      16.510192      225.33961      1.0204196      0.95125388     1.0768455      717.83049    
     16400   1.1492088      224.09572      11.827229      235.92295      1.0998792      0.84085277     0.97664431     722.9381     
     16500   1.023414       199.56572      10.447303      210.01303      0.98318683     0.72499233     0.84683699     726.4004     
     16600   0.95378908     185.98887      14.469722      200.45859      0.91786045     0.82139311     0.93611551     722.99956    
     16700   1.0088649      196.72866      21.937241      218.6659       0.97196252     0.97310668     1.0959392      716.88125    
     16800   1.0595908      206.6202       24.736913      231.35711      1.0234469      0.98926464     1.1196005      715.45755    
     16900   1.0552979      205.78309      20.860393      226.64348      1.0233497      0.86841818     0.99912321     719.62313    
     17000   0.97372607     189.87658      16.039014      205.9156       0.94748528     0.78147881     0.90264933     724.07548    
     17100   0.87614776     170.84881      15.070541      185.91935      0.85259374     0.73768787     0.8468221      723.52323    
     17200   1.0088665      196.72897      20.18833       216.9173       0.97636669     0.90664672     1.0313607      716.41089    
     17300   1.075362       209.6956       26.116983      235.81258      1.0324269      1.0568211      1.1873862      710.79851    
     17400   1.0498733      204.72529      24.639429      229.36472      0.99977543     1.0313046      1.1548335      714.07549    
     17500   1.0070098      196.36691      18.230641      214.59755      0.95227552     0.82610186     0.94017229     724.55072    
     17600   1.0556828      205.85815      14.491524      220.34967      0.99166837     0.72929126     0.84492329     732.50194    
     17700   1.1862188      231.31266      14.917455      246.23012      1.1065045      0.77712344     0.90387295     732.88762    
     17800   1.1144438      217.31654      18.01416       235.3307       1.0326712      0.8707283      0.9878062      728.1999     
     17900   1.0354117      201.90528      21.773121      223.6784       0.9528374      0.98445762     1.0913306      723.06444    
     18000   1.0690249      208.45986      22.263164      230.72302      0.97879964     1.016962       1.125364       722.57405    
     18100   1.1184071      218.08938      17.450091      235.53947      1.0244567      0.90710627     1.0198008      728.30918    
     18200   1.1210379      218.6024       12.411822      231.01422      1.0326507      0.76897482     0.88315775     735.34858    
     18300   1.0068103      196.32802      11.63987       207.96789      0.93266948     0.71804569     0.82252172     736.47649    
     18400   0.969299       189.01331      16.011801      205.02511      0.89974187     0.84323488     0.94560619     728.82786    
     18500   1.1113734      216.71781      23.569553      240.28736      1.029826       1.0828648      1.2011018      719.07445    
     18600   1.1362414      221.56708      24.633626      246.20071      1.0510045      1.0772701      1.1974735      718.59187    
     18700   1.0694643      208.54555      17.770662      226.31621      0.98916185     0.8462524      0.95794245     727.71816    
     18800   1.0420497      203.1997       13.168069      216.36777      0.9626019      0.66874224     0.77596585     735.31061    
     18900   1.1464658      223.56084      13.108218      236.66906      1.0537546      0.71289125     0.82926677     732.02038    
     19000   1.2996505      253.43185      16.453928      269.88578      1.185589       0.88793359     1.0183644      720.27257    
     19100   1.1528126      224.79845      21.144801      245.94325      1.0435806      1.0168522      1.1310039      709.3249     
     19200   1.0945225      213.4319       21.514386      234.94628      0.9863614      1.0230535      1.1302669      704.87443    
     19300   1.0772036      210.05471      16.55839       226.6131       0.9706198      0.88924524     0.99446374     706.50023    
     19400   1.1165452      217.72632      12.333102      230.05943      1.00723        0.78331166     0.89261205     708.06764    
     19500   1.1879168      231.64378      12.84148       244.48526      1.0715898      0.80835838     0.92518849     704.71588    
     19600   1.1310612      220.55693      17.240059      237.79699      1.0213234      0.93963918     1.052367       698.06026    
     19700   1.0082409      196.60697      21.121595      217.72857      0.91420194     1.0050467      1.1077777      693.60005    
     19800   1.0568517      206.08608      19.971883      226.05796      0.96457672     0.97608614     1.0863374      694.18602    
     19900   1.1419748      222.68509      15.298845      237.98394      1.0484351      0.84514274     0.96606784     698.83244    
     20000   1.1195346      218.30925      11.822         230.13125      1.0308262      0.75532546     0.87452616     702.36859    
     20100   1.0783325      210.27484      13.092528      223.36737      0.99344842     0.82539038     0.9407431      700.50837    
     20200   1.0512562      204.99496      20.64853       225.64349      0.97175756     0.9741987      1.0887704      695.89609    
     20300   1.0899068      212.53183      27.553478      240.0853       1.0186869      1.0776301      1.2012144      695.42353    
     20400   1.1975414      233.52057      24.713413      258.23399      1.1400644      0.9759952      1.1186714      704.52013    
     20500   1.0619471      207.07968      16.095549      223.17523      1.0297246      0.73508273     0.86650402     720.04795    
     20600   0.9857422      192.21973      12.249773      204.4695       0.96795872     0.64188693     0.76701459     730.39143    
     20700   0.9964031      194.29861      15.266689      209.56529      0.98552086     0.68001856     0.80958176     729.05736    
     20800   1.0525723      205.2516       22.948572      228.20017      1.04499        0.85050052     0.99102761     718.22791    
     20900   1.0689342      208.44217      29.353541      237.79572      1.0644873      1.0459476      1.1922587      707.07292    
     21000   0.93629969     182.57844      26.824964      209.4034       0.93483878     1.0269636      1.1565864      704.57791    
     21100   0.94041362     183.38066      18.195665      201.57632      0.93836388     0.867658       0.99668373     709.62564    
     21200   1.0448108      203.7381       12.558599      216.2967       1.0386313      0.76313688     0.90379159     715.09072    
     21300   1.0672991      208.12332      12.946405      221.06972      1.0542588      0.7765909      0.91728189     716.28272    
     21400   0.97803498     190.71682      17.467244      208.18406      0.95782314     0.86009468     0.98613938     713.44027    
     21500   0.85751639     167.2157       22.377695      189.59339      0.83239313     0.95641456     1.0644149      709.9562     
     21600   0.85945545     167.59381      22.630227      190.22404      0.82892816     0.99223033     1.0983334      709.51904    
     21700   1.0380442      202.41862      17.390351      219.80897      0.99972248     0.93779335     1.0645141      714.16939    
     21800   1.0882763      212.21389      11.315782      223.52967      1.0510228      0.77668739     0.90924741     722.20718    
     21900   1.0382093      202.45081      9.7129739      212.16378      1.0052236      0.69525543     0.82203052     726.32339    
     22000   0.96893328     188.94199      14.309521      203.25151      0.93722297     0.79092772     0.9096061      721.81929    
     22100   1.0113724      197.21762      23.309099      220.52672      0.9747841      1.039263       1.1632745      712.79018    
     22200   1.1358058      221.48213      26.852405      248.33453      1.0912918      1.1864522      1.3245258      711.69554    
     22300   1.0777935      210.16972      16.356012      226.52574      1.037148       0.87808972     1.0072217      725.7277     
     22400   1.0028354      195.5529       8.0616715      203.61458      0.96733645     0.59544047     0.71396976     741.39207    
     22500   1.0206892      199.03439      7.3064841      206.34088      0.98264283     0.59518655     0.71482338     742.91465    
     22600   1.0687217      208.40072      14.240278      222.641        1.0216459      0.81307482     0.93769222     729.76588    
     22700   1.0783411      210.27652      25.764326      236.04084      1.0245422      1.1360464      1.2618806      714.54625    
     22800   0.96055512     187.30825      27.652575      214.96082      0.91282141     1.1380845      1.2506495      712.01843    
     22900   0.94411181     184.1018       19.007172      203.10897      0.90016736     0.86275992     0.97320738     721.13231    
     23000   1.0804958      210.69669      12.680301      223.37699      1.031869       0.71233568     0.83799269     729.2942     
     23100   1.0911509      212.77442      11.118897      223.89332      1.0406466      0.69464165     0.82100133     729.14886    
     23200   1.0362672      202.0721       16.024148      218.09625      0.98454279     0.86450671     0.98438572     720.71782    
     23300   0.99900988     194.80693      24.668869      219.4758       0.94543664     1.0493725      1.1648055      712.15401    
     23400   1.0938884      213.30825      25.888968      239.19721      1.0342017      1.0652042      1.191256       711.71364    
     23500   1.1835073      230.78392      18.113948      248.89787      1.1234125      0.92201227     1.0585604      720.44883    
     23600   1.0469669      204.15854      11.952288      216.11083      0.99799537     0.7424278      0.86304759     731.67179    
     23700   0.9998153      194.96398      12.546948      207.51093      0.95303944     0.69278668     0.8073234      735.804      
     23800   1.049344       204.62208      17.760151      222.38223      0.99651054     0.79018368     0.90980782     730.24988    
     23900   1.1148623      217.39815      23.301525      240.69967      1.0535861      0.93096704     1.0576598      720.66143    
     24000   1.0492822      204.61002      24.413793      229.02381      0.98709096     0.99270316     1.1111147      714.52169    
     24100   0.94511587     184.29759      22.068434      206.36603      0.88423538     0.94565507     1.0504108      713.88314    
     24200   1.0477161      204.30464      19.992033      224.29667      0.97386388     0.90792197     1.0210908      716.07621    
     24300   1.1239477      219.16979      18.977821      238.14762      1.0385632      0.88075056     0.99905977     719.54855    
     24400   1.0992334      214.35052      19.296955      233.64747      1.0102882      0.85582359     0.96878161     722.95816    
     24500   1.0418083      203.15262      19.233031      222.38565      0.95248687     0.8675576      0.97228901     724.95945    
     24600   1.0005396      195.10522      17.888295      212.99351      0.90980696     0.86000504     0.9585234      725.4305     
     24700   1.1095828      216.36864      16.212193      232.58084      1.0045186      0.86171177     0.96939938     723.9023     
     24800   1.2110471      236.15418      14.910259      251.06444      1.0935198      0.87362775     0.99049121     720.90229    
     24900   1.1128922      217.01397      15.352324      232.3663       1.0043224      0.85019874     0.95791885     717.15954    
     25000   1.050466       204.84087      18.221469      223.06234      0.94821715     0.89998563     1.0025416      711.67742    
     25100   1.0881404      212.18737      22.224777      234.41215      0.98413085     0.99156419     1.0993554      706.57895    
     25200   1.1209039      218.57627      23.001254      241.57752      1.0182172      0.98059971     1.09355        706.16344    
     25300   1.1077069      216.00285      19.937072      235.93992      1.0115368      0.86819263     0.98136929     710.19436    
     25400   1.0900903      212.56761      16.172934      228.74055      0.99931409     0.77702354     0.88943146     713.75233    
     25500   1.0937063      213.27273      15.307692      228.58042      1.0030557      0.76650215     0.8797205      712.0982     
     25600   1.1029853      215.08213      18.244351      233.32648      1.007108       0.87441974     0.98795848     704.60993    
     25700   1.0921654      212.97224      23.923161      236.89541      0.98983877     0.99864381     1.1093088      696.25017    
     25800   1.0444561      203.66894      26.729841      230.39878      0.94062262     1.025549       1.1293916      692.71601    
     25900   1.0516275      205.06737      23.384249      228.45162      0.94531088     0.94903878     1.0524853      695.12924    
     26000   1.1791484      229.93393      18.106179      248.04011      1.061789       0.87949507     0.99533987     700.68093    
     26100   1.1748224      229.09038      15.038112      244.12849      1.0606583      0.79794873     0.9135865      706.36534    
     26200   1.0450518      203.7851       15.692376      219.47748      0.94414183     0.77000405     0.8728652      708.2213     
     26300   1.0329962      201.43425      20.786585      222.22084      0.93199109     0.91113829     1.0128064      704.63699    
     26400   1.0856287      211.69759      25.503136      237.20073      0.97981581     1.0368826      1.1443669      701.39022    
     26500   1.1100374      216.4573       23.324469      239.78177      1.0052276      0.99735543     1.1081402      704.73973    
     26600   1.1178708      217.9848       16.96756       234.95236      1.0161227      0.85270484     0.96440526     713.86611    
     26700   1.0981723      214.14359      11.769402      225.91299      1.0009731      0.74062411     0.85017048     722.44769    
     26800   1.0493129      204.61602      11.044742      215.66077      0.95731713     0.71297125     0.81776324     724.08102    
     26900   1.0566542      206.04757      15.580629      221.62819      0.96284885     0.8240851      0.93025983     716.43365    
     27000   1.1709882      228.34271      23.067873      251.41058      1.0655508      1.0669429      1.1858981      705.00207    
     27100   1.1748371      229.09323      24.140516      253.23374      1.0727277      1.1377308      1.2592043      701.51935    
     27200   1.0129039      197.51627      15.456382      212.97265      0.93189167     0.89685598     1.0032675      709.77245    
     27300   1.0139713      197.7244       9.3450089      207.06941      0.93821653     0.72788959     0.83511463     719.72972    
     27400   1.0797001      210.54152      9.6333123      220.17483      1.0030553      0.73062298     0.84600049     722.44322    
     27500   1.1041529      215.30982      14.149907      229.45973      1.0316311      0.82567659     0.94689988     717.33824    
     27600   1.0641291      207.50518      19.75355       227.25872      1.0034989      0.98784551     1.1098233      709.30928    
     27700   0.92880597     181.11716      22.360311      203.47747      0.88628437     1.03335        1.1446606      705.8103     
     27800   0.88285445     172.15662      19.082689      191.23931      0.85187305     0.95670338     1.0658762      709.35392    
     27900   1.0148794      197.90149      14.488941      212.39043      0.98589897     0.87344419     1.0002754      717.22821    
     28000   1.0367821      202.17251      12.78853       214.96104      1.0099877      0.77693481     0.90608796     725.91247    
     28100   1.0400084      202.80163      14.095408      216.89704      1.0121196      0.78867102     0.91690642     731.07273    
     28200   1.032348       201.30786      16.594348      217.90221      1.0029502      0.84825282     0.97463518     732.35333    
     28300   1.0159521      198.11066      20.287494      218.39815      0.9857984      0.90820614     1.0320863      732.38728    
     28400   1.0304643      200.94053      21.91827       222.8588       1.0000651      0.9266011      1.0520184      734.17711    
     28500   1.0823877      211.06561      20.047916      231.11352      1.0521536      0.85707057     0.98864781     738.84668    
     28600   1.0657156      207.81454      16.703779      224.51832      1.0377467      0.79235671     0.92173862     743.88473    
     28700   0.95570433     186.36234      13.922385      200.28473      0.92994202     0.71951341     0.835106       744.94976    
     28800   0.97272554     189.68148      14.659048      204.34053      0.94195948     0.74454667     0.86164929     737.06844    
     28900   1.1389361      222.09253      19.719335      241.81187      1.0942202      0.94243161     1.0790344      721.17123    
     29000   1.1438222      223.04533      25.97053       249.01586      1.0930367      1.1340151      1.2713528      707.84966    
     29100   1.0368577      202.18724      25.64914       227.83638      0.99032789     1.0866568      1.2111732      706.56406    
     29200   1.0264884      200.16524      18.853462      219.0187       0.98262904     0.87921161     1.0018157      715.67803    
     29300   1.0542487      205.57849      12.089075      217.66757      1.0107628      0.71756593     0.84229836     726.15451    
     29400   1.0873797      212.03903      9.2464995      221.28553      1.0401943      0.66911362     0.79625684     729.39719    
     29500   1.0493617      204.62553      12.520579      217.14611      0.99571556     0.7796552      0.90025651     722.37298    
     29600   0.97863828     190.83447      21.267826      212.10229      0.91886432     1.0073657      1.1177889      709.93011    
     29700   1.0388033      202.56664      26.965459      229.5321       0.9692976      1.2052377      1.3210352      703.27564    
     29800   1.1741365      228.95662      19.573005      248.52963      1.10134        0.98769155     1.1194848      711.23537    
     29900   1.0886512      212.28698      10.792448      223.07943      1.0331854      0.69814196     0.82269956     726.06048    
     30000   1.0169704      198.30922      8.0002951      206.30952      0.97229686     0.57513165     0.69329146     732.68361    
     30100   1.0352481      201.87338      11.162115      213.03549      0.98801528     0.67599564     0.79702638     723.90778    
     30200   1.1042112      215.32119      20.252488      235.57368      1.0446952      0.98130343     1.1099335      705.70211    
     30300   1.1361176      221.54293      27.918614      249.46154      1.0673575      1.2480784      1.3794868      693.9647     
     30400   1.0167817      198.27243      19.958721      218.23115      0.95549815     1.0431689      1.1600462      698.92579    
     30500   0.98327879     191.73936      9.6974815      201.43685      0.9285503      0.71052607     0.82351857     710.89565    
     30600   1.0877691      212.11498      7.1763376      219.29132      1.0302044      0.65461629     0.78016922     714.71766    
     30700   1.1330226      220.93942      10.803006      231.74242      1.0723557      0.7818921      0.91358735     708.15611    
     30800   1.04826        204.4107       18.635459      223.04616      0.98909837     0.96050863     1.0827775      698.42081    
     30900   1.0206123      199.0194       23.45521       222.47461      0.95817771     1.0419635      1.1598308      693.37854    
     31000   1.0562223      205.96335      20.752974      226.71632      0.98686169     0.9701454      1.0897052      695.77851    
     31100   1.0944223      213.41234      15.370193      228.78253      1.0207473      0.81571033     0.93775437     701.93192    
     31200   1.0978911      214.08876      13.243767      227.33252      1.0223987      0.72362361     0.84486839     704.97104    
     31300   1.0220646      199.30259      14.838708      214.1413       0.94921157     0.74218249     0.85465972     700.73204    
     31400   0.98206252     191.50219      19.364054      210.86625      0.91036224     0.90079389     1.0097344      690.59648    
     31500   1.1221755      218.82421      22.51571       241.33992      1.040404       1.0926395      1.2187371      682.12392    
     31600   1.1719939      228.53881      18.576166      247.11498      1.0903314      1.0464708      1.1795272      683.38164    
     31700   1.0735866      209.34938      11.667358      221.01674      1.0034733      0.81525204     0.93759191     692.0744     
     31800   1.0416473      203.12122      8.4796678      211.60089      0.97639331     0.70725465     0.82612862     697.89894    
     31900   1.0586614      206.43898      10.567405      217.00638      0.99655496     0.80143194     0.92435299     695.98839    
     32000   1.0885991      212.27683      16.654934      228.93177      1.0339292      0.96229856     1.0935042      691.01037    
     32100   1.1258285      219.53656      20.447023      239.98358      1.0842496      1.0331766      1.1753244      690.46842    
     32200   1.0385516      202.51756      18.636729      221.15429      1.0154226      0.93349075     1.0696997      697.467      
     32300   0.92334008     180.05131      14.579263      194.63058      0.91377981     0.78116935     0.90514393     707.29156    
     32400   0.97622219     190.36333      12.485758      202.84908      0.97122813     0.74419359     0.8763892      712.62967    
     32500   1.0740554      209.44079      12.67598       222.11677      1.0677472      0.77525365     0.92051496     711.88351    
     32600   1.0464314      204.05412      14.827991      218.88211      1.0337593      0.84210563     0.98180943     707.47791    
     32700   1.0092994      196.81339      17.560254      214.37364      0.98802317     0.89769669     1.0296116      702.55439    
     32800   1.0161055      198.14057      17.759673      215.90025      0.98575109     0.91409483     1.0437515      699.42031    
     32900   1.0579082      206.2921       14.70907       221.00117      1.0190921      0.88373308     1.0158831      698.46258    
     33000   1.127502       219.8629       11.833374      231.69627      1.081218       0.8356386      0.97444766     698.32613    
     33100   1.0679175      208.24392      11.781559      220.02548      1.0213077      0.80982166     0.94036592     697.07581    
     33200   0.97855814     190.81884      13.480472      204.29931      0.93370067     0.83095818     0.95033968     693.20167    
     33300   1.0259254      200.05545      15.053292      215.10874      0.97654056     0.88145992     1.0066913      687.29521    
     33400   1.1504802      224.34365      15.075501      239.41915      1.091564       0.92917119     1.0692046      681.87001    
     33500   1.0904529      212.63832      13.325294      225.96361      1.0325303      0.91398042     1.0462745      679.494      
     33600   0.95957185     187.11651      12.567801      199.68431      0.91010988     0.8469908      0.96413923     679.01624    
     33700   1.022153       199.31983      14.092794      213.41263      0.97478331     0.86841838     0.99582439     677.29675    
     33800   1.0953176      213.58693      15.79615       229.38308      1.0524813      0.93457083     1.0748774      675.59255    
     33900   1.0538352      205.49787      15.796501      221.29437      1.022481       0.93309944     1.072061       677.08709    
     34000   0.92572143     180.51568      13.699216      194.2149       0.90765091     0.83804948     0.9633569      681.73169    
     34100   0.91122714     177.68929      12.655511      190.3448       0.90025092     0.80087301     0.92648306     685.32917    
     34200   1.0810245      210.79978      13.492512      224.2923       1.0717471      0.86618001     1.0165477      686.46472    
     34300   1.04035        202.86824      14.282529      217.15077      1.0324936      0.85305815     0.9978739      688.13213    
     34400   0.9544824      186.12407      14.348156      200.47222      0.94494631     0.83424205     0.96576432     689.96078    
     34500   0.97264818     189.66639      14.283023      203.94942      0.95735714     0.83705626     0.96861086     690.50607    
     34600   1.1131783      217.06978      14.119943      231.18972      1.0889191      0.87259753     1.0204046      689.97715    
     34700   1.1007793      214.65197      13.466742      228.11871      1.073319       0.83525917     0.97992114     690.09501    
     34800   1.0127638      197.48894      14.226959      211.7159       0.98622481     0.81241678     0.94510194     689.41342    
     34900   1.0126794      197.47248      17.044207      214.51669      0.98581886     0.88133574     1.0144543      686.39884    
     35000   1.036867       202.18907      19.996768      222.18583      1.0113056      0.95466874     1.0923241      683.76188    
     35100   1.0522561      205.18993      19.684968      224.8749       1.0313394      0.94033594     1.0819134      685.08458    
     35200   1.0054811      196.06882      16.336132      212.40495      0.99178358     0.83615885     0.97303388     690.58449    
     35300   0.92997242     181.34462      13.191811      194.53643      0.92175971     0.70297443     0.83053706     695.58748    
     35400   0.98876264     192.80871      12.945871      205.75459      0.97911911     0.7402345      0.87589577     693.44171    
     35500   1.1200643      218.41255      15.808869      234.22141      1.1017033      0.91036399     1.0627212      685.1432     
     35600   1.0634592      207.37455      19.117713      226.49226      1.0372422      1.0296266      1.1719092      678.49026    
     35700   1.0074131      196.44555      18.147837      214.59339      0.97624277     0.99972427     1.1316863      678.93452    
     35800   1.014665       197.85967      13.836402      211.69607      0.98096979     0.88804472     1.0186414      685.80981    
     35900   1.0477767      204.31646      9.9557247      214.27219      1.0131643      0.79713538     0.93029037     694.98469    
     36000   1.0947846      213.48299      8.2331049      221.71609      1.0614335      0.74507073     0.88391127     702.36718    
     36100   1.1074648      215.95564      8.9227733      224.87842      1.0766312      0.73795285     0.87908614     704.98816    
     36200   0.97819707     190.74843      12.319943      203.06837      0.9525495      0.82127142     0.94713312     701.94963    
     36300   0.94483386     184.2426       18.470644      202.71325      0.92370977     0.98126604     1.1053848      696.14243    
     36400   1.0384173      202.49138      21.367474      223.85886      1.0247274      1.0414884      1.1822016      694.70201    
     36500   1.0484017      204.43834      18.35317       222.79151      1.0478226      0.9166563      1.0627954      701.89049    
     36600   0.98218068     191.52523      14.073749      205.59898      0.99396683     0.75196351     0.89166024     713.73934    
     36700   0.95516902     186.25796      11.859239      198.1172       0.97738904     0.67375157     0.81241162     722.03228    
     36800   0.97134625     189.41252      13.427586      202.84011      1.0002185      0.72106182     0.86469226     721.65415    
     36900   0.99319264     193.67256      19.673762      213.34633      1.0217119      0.88073616     1.0286957      714.31021    
     37000   0.98106725     191.30811      26.200665      217.50878      1.0021584      1.0235972      1.1682064      707.59161    
     37100   0.92648734     180.66503      25.211022      205.87605      0.93957985     0.976636       1.1102511      708.2425     
     37200   0.95860422     186.92782      18.790597      205.71842      0.97063694     0.83053133     0.96690279     714.73016    
     37300   1.050206       204.79017      12.541052      217.33122      1.0667461      0.73221276     0.88173189     720.7536     
     37400   1.0169206      198.29951      11.9256        210.22511      1.0400948      0.7015692      0.84912407     721.41473    
     37500   0.89282402     174.10068      18.370637      192.47132      0.91922605     0.796382       0.92969912     714.33097    
     37600   0.906841       176.83399      30.133096      206.96709      0.93558397     1.0683946      1.2066676      703.62351    
     37700   0.96234319     187.65692      34.916529      222.57345      0.99087281     1.1837385      1.3300146      701.88373    
     37800   0.97564541     190.25085      22.775898      213.02675      1.0029432      0.93969375     1.0844108      715.9592     
     37900   0.97904892     190.91454      10.14416       201.0587       1.0062755      0.63209076     0.7732759      736.08433    
     38000   0.98296758     191.67868      6.7916021      198.47028      1.0093281      0.53581589     0.67537918     745.57177    
     38100   0.98839333     192.7367       11.562169      204.29887      1.0107338      0.67464866     0.81474883     738.10266    
     38200   0.97107859     189.36033      25.326532      214.68686      0.98690934     1.0115891      1.1498517      721.84443    
     38300   0.95049654     185.34682      35.961952      221.30878      0.96427819     1.202454       1.3386526      713.56577    
     38400   0.99450703     193.92887      28.517335      222.44621      1.0141971      1.003544       1.1466795      721.21105    
     38500   1.0556731      205.85625      16.551107      222.40735      1.0860076      0.74812909     0.90073942     736.14922    
     38600   0.96913566     188.98145      10.28425       199.2657       1.0011516      0.59977208     0.73979259     745.29057    
     38700   0.88822606     173.20408      10.77168       183.97576      0.91461621     0.61954486     0.74753102     740.53689    
     38800   0.96156079     187.50435      18.699151      206.20351      0.98064752     0.86711694     1.0049326      724.33968    
     38900   1.0242901      199.73657      28.79487       228.53144      1.0341566      1.1557935      1.3010271      711.07058    
     39000   1.0090686      196.76838      25.832728      222.6011       1.0143441      1.0998176      1.2407179      712.8048     
     39100   0.97402649     189.93517      15.153207      205.08837      0.97984013     0.81839246     0.95241775     724.92285    
     39200   0.97895259     190.89575      9.8100144      200.70577      0.98443037     0.65814214     0.79114251     733.39902    
     39300   1.0095592      196.86405      10.187501      207.05155      1.0111417      0.66739801     0.80340824     730.83093    
     39400   1.0205263      199.00263      15.654776      214.65741      1.014728       0.83494511     0.9715407      719.73529    
     39500   1.0049882      195.97271      23.197044      219.16975      0.99480532     1.0394322      1.1740393      709.51115    
     39600   0.97998708     191.09748      23.010972      214.10845      0.97287822     1.0603985      1.1930131      708.48825    
     39700   0.99161451     193.36483      15.357116      208.72195      0.99052349     0.91430376     1.0495311      716.26442    
     39800   1.0558381      205.88842      10.046421      215.93484      1.0616716      0.74689246     0.89186469     725.52756    
     39900   1.0496768      204.68698      10.45996       215.14694      1.0629212      0.6971378      0.84358865     728.90612    
     40000   0.91077393     177.60092      13.90027       191.50119      0.92892422     0.74791004     0.87846894     724.37713    
     40100   0.90370193     176.22188      20.527117      196.74899      0.92871849     0.94397814     1.0780447      715.26129    
     40200   0.97606887     190.33343      25.260122      215.59355      1.0122635      1.088157       1.2375958      711.05899    
     40300   0.97047928     189.24346      20.998034      210.24149      1.0187033      0.94961184     1.1018151      717.70205    
     40400   0.93662584     182.64204      14.021823      196.66386      0.99318398     0.76073296     0.90938844     728.93959    
     40500   0.92590913     180.55228      10.71879       191.27107      0.98570218     0.66550738     0.81279237     735.02708    
     40600   0.98230148     191.54879      12.187216      203.736        1.0417653      0.71401831     0.86942589     731.5502     
     40700   1.0492705      204.60775      16.179534      220.78728      1.1036122      0.86704911     1.031476       722.20948    
     40800   0.94091876     183.47916      19.642421      203.12158      0.98430977     0.97052737     1.1172719      715.00857    
     40900   0.89709425     174.93338      19.280271      194.21365      0.94058758     0.95220813     1.0931964      713.95139    
     41000   0.94629405     184.52734      16.611488      201.13883      0.99997172     0.85949511     1.0106914      717.37463    
     41100   0.99894828     194.79492      14.077265      208.87218      1.0646498      0.76930378     0.93173632     721.20688    
     41200   0.91494121     178.41354      13.338554      191.75209      0.98215863     0.73217495     0.8836788      721.82286    
     41300   0.81206572     158.35282      15.096062      173.44888      0.87529425     0.76191786     0.89879426     716.76633    
     41400   0.91685354     178.78644      18.349523      197.13596      0.98649167     0.91274889     1.0685679      707.58755    
     41500   0.9879165      192.64372      19.431681      212.0754       1.0599516      0.9612526      1.1292749      701.82421    
     41600   0.94241351     183.77063      16.306802      200.07744      1.0106492      0.8603286      1.0203457      702.10961    
     41700   0.87668066     170.95273      13.316859      184.26959      0.94062517     0.76007432     0.90884758     703.42239    
     41800   0.91927815     179.25924      13.187715      192.44695      0.98373221     0.78612718     0.94161452     700.85642    
     41900   1.0920073      212.94142      15.813665      228.75509      1.1652211      0.92691911     1.1113635      696.51547    
     42000   0.97607809     190.33523      17.027701      207.36293      1.0437081      0.92115959     1.0868478      696.91876    
     42100   0.88846294     173.25027      15.584464      188.83474      0.9562369      0.8390021      0.99142638     701.5099     
     42200   0.89517608     174.55934      14.090783      188.65012      0.97090217     0.79322145     0.94888752     706.09477    
     42300   0.97299552     189.73413      13.510718      203.24485      1.0605692      0.79786981     0.96867607     708.47908    
     42400   0.97669891     190.45629      13.912841      204.36913      1.0665754      0.81181213     0.98387013     709.35557    
     42500   0.82203713     160.29724      14.08433       174.38157      0.89724968     0.78940895     0.93410373     709.05746    
     42600   0.85689186     167.09391      14.621685      181.7156       0.93318169     0.85521736     1.0057853      706.18153    
     42700   0.94923579     185.10098      14.812871      199.91385      1.0337397      0.88393999     1.0513846      703.42509    
     42800   0.95138484     185.52004      14.281359      199.8014       1.0386403      0.80843101     0.97750457     702.66195    
     42900   0.88677834     172.92178      14.157271      187.07905      0.97081353     0.78041705     0.9395061      701.03246    
     43000   0.82744674     161.35211      14.890004      176.24212      0.90594232     0.83026798     0.9797486      696.33763    
     43100   0.81957729     159.81757      16.842212      176.65978      0.89493445     0.93489942     1.08331        689.96584    
     43200   0.95719889     186.65378      17.134492      203.78828      1.0429054      0.9596448      1.1328817      686.44434    
     43300   0.9833597      191.75514      13.300304      205.05545      1.0715756      0.84225362     1.0197713      688.47492    
     43400   0.8867208      172.91056      9.779868       182.69042      0.96833433     0.74245706     0.9024746      692.49536    
     43500   0.85576332     166.87385      10.651085      177.52493      0.93682426     0.7250481      0.88035291     692.93193    
     43600   0.92534963     180.44318      16.080131      196.52331      1.0134092      0.8510554      1.0204468      687.67207    
     43700   0.96899024     188.9531       22.513615      211.46671      1.0596         1.0247894      1.2028375      682.45446    
     43800   0.9335962      182.05126      20.78364       202.8349       1.0238211      0.98989362     1.1618666      685.73755    
     43900   0.89037222     173.62258      12.74019       186.36277      0.98631213     0.76686105     0.93228079     697.419      
     44000   0.86830171     169.31883      8.383861       177.70269      0.97189018     0.6080496      0.77115964     707.77368    
     44100   0.91184793     177.81035      10.400108      188.21045      1.0258071      0.67142794     0.84472436     708.33041    
     44200   0.96760432     188.68284      17.315762      205.9986       1.0904146      0.88937227     1.075842       701.50069    
     44300   0.86719155     169.10235      22.529467      191.63182      0.98160005     1.0220876      1.1919827      697.52733    
     44400   0.79421189     154.87132      19.000132      173.87145      0.90429307     0.9076007      1.0644018      702.07765    
     44500   0.85738448     167.18997      13.391417      180.58139      0.97758051     0.7270551      0.8949505      710.21071    
     44600   0.90555039     176.58233      11.24842       187.83075      1.0283467      0.66794971     0.84262257     714.03916    
     44700   0.90456797     176.39075      12.278613      188.66937      1.0181684      0.71163842     0.88332882     710.18879    
     44800   0.88342932     172.26872      16.172824      188.44154      0.98270517     0.83683131     1.0019921      700.31082    
     44900   0.82704432     161.27364      20.976039      182.24968      0.90915317     0.99101072     1.1432983      690.19595    
     45000   0.78953764     153.95984      22.734739      176.69458      0.8602416      1.04388        1.186789       686.38764    
     45100   0.92184188     179.75917      18.43865       198.19782      1.0019878      0.93264358     1.097306       691.252      
     45200   0.95188171     185.61693      12.128068      197.745        1.0383379      0.75849219     0.92764335     701.24306    
     45300   0.90840661     177.13929      8.8847282      186.02402      0.99438611     0.64298551     0.80421412     708.40929    
     45400   0.86267835     168.22228      9.9852167      178.20749      0.94317123     0.67586494     0.82890767     706.51441    
     45500   0.90197926     175.88595      15.546427      191.43238      0.97859935     0.90785691     1.0668982      696.94898    
     45600   1.0296359      200.779        20.059005      220.838        1.1075436      1.082429       1.2616614      690.34009    
     45700   0.96648151     188.46389      16.209464      204.67336      1.0354017      0.96898677     1.1342814      695.17589    
     45800   0.87254035     170.14537      10.528205      180.67357      0.93601832     0.72679538     0.87413431     706.58854    
     45900   0.89613843     174.74699      9.7830949      184.53009      0.96251626     0.64802911     0.79848408     712.97261    
     46000   0.94921746     185.09741      13.826448      198.92385      1.0167915      0.73976805     0.89869578     709.89818    
     46100   0.96321794     187.8275       21.449687      209.27718      1.0240822      0.91784025     1.0777464      701.84058    
     46200   0.93043914     181.43563      26.66987       208.1055       0.98126764     1.0022077      1.1544004      696.9836     
     46300   0.81730086     159.37367      23.915774      183.28944      0.85676332     0.88610594     1.0172662      698.82414    
     46400   0.86526737     168.72714      17.691304      186.41844      0.90164534     0.770552       0.90651538     702.06369    
     46500   1.0012423      195.24224      13.4809        208.72314      1.0362284      0.72436713     0.87894205     701.10131    
     46600   1.0130622      197.54713      14.425006      211.97213      1.0389385      0.73586434     0.88985994     693.92791    
     46700   0.9591857      187.04121      19.471361      206.51257      0.97291845     0.89866617     1.0426042      681.01479    
     46800   0.93924035     183.15187      26.123282      209.27515      0.94569736     1.1363398      1.2766408      669.54205    
     46900   1.0393109      202.66562      21.673617      224.33924      1.0476906      1.1030343      1.2588871      669.27062    
     47000   1.1270803      219.78066      9.8130662      229.59372      1.1443939      0.79744564     0.96720773     680.52147    
     47100   0.97778626     190.66832      4.8879391      195.55626      1.000078       0.559519       0.70747627     691.78441    
     47200   0.93860207     183.0274       7.0973016      190.12471      0.96232512     0.63293776     0.7761157      690.98537    
     47300   0.97371311     189.87406      17.802375      207.67643      0.99735384     0.94949424     1.1000164      679.97024    
     47400   1.026513       200.17003      29.898691      230.06872      1.0533706      1.206196       1.36748        672.52508    
     47500   1.0242327      199.72538      25.215654      224.94103      1.0600679      1.0685775      1.2314938      680.56118    
     47600   0.89094872     173.735        13.408665      187.14367      0.93283205     0.66462635     0.80689459     699.97908    
     47700   0.86719288     169.10261      8.0800069      177.18262      0.91330887     0.5278643      0.66604969     712.788      
     47800   0.98785598     192.63192      8.8716204      201.50354      1.0392068      0.62714472     0.7847143      709.88109    
     47900   1.0041873      195.81653      17.434327      213.25085      1.0535688      0.89606603     1.0581486      696.42992    
     48000   0.93669598     182.65572      28.870114      211.52583      0.9869596      1.132032       1.2873896      685.66607    
     48100   0.89925134     175.35401      29.511411      204.86542      0.95928614     1.1119955      1.2657232      687.68891    
     48200   0.92160242     179.71247      18.578576      198.29105      0.99816491     0.88677038     1.0473805      702.00959    
     48300   0.98441776     191.96146      9.4381391      201.3996       1.0788185      0.66841809     0.84112448     718.74799    
     48400   1.1200608      218.41186      7.9511904      226.36305      1.2337776      0.64539261     0.84198697     727.81828    
     48500   0.94994746     185.23976      11.908357      197.14811      1.0462614      0.68566514     0.85232545     727.91682    
     48600   0.88025429     171.64959      19.057951      190.70754      0.96400583     0.81100629     0.96464804     721.185      
     48700   0.89261962     174.06083      25.477989      199.53881      0.96959039     0.94904543     1.1032018      713.7504     
     48800   0.9701284      189.17504      26.434608      215.60965      1.0469527      1.0038962      1.1690289      712.04622    
     48900   0.98479238     192.03451      21.611662      213.64618      1.0628421      0.87199378     1.0382653      717.97144    
     49000   0.85139187     166.02142      18.219968      184.24138      0.92149189     0.69038248     0.83385556     724.7053     
     49100   0.84585923     164.94255      18.358998      183.30155      0.91465256     0.69552756     0.83798321     723.38757    
     49200   0.94469802     184.21611      20.167597      204.38371      1.0156302      0.79247435     0.95104489     714.90922    
     49300   0.97415388     189.96001      21.697098      211.6571       1.0402291      0.8946086      1.0573667      705.50773    
     49400   0.93809319     182.92817      22.639436      205.56761      0.99712008     0.93403134     1.0900495      700.09822    
     49500   0.90143178     175.7792       21.620724      197.39992      0.9546191      0.91394091     1.0625022      699.53736    
     49600   0.94682374     184.63063      17.601959      202.23259      0.9984845      0.86179103     1.0155712      701.81577    
     49700   1.0746807      209.56274      13.249821      222.81256      1.129636       0.81587428     0.98816179     704.75576    
     49800   0.97864348     190.83548      11.470065      202.30554      1.0266942      0.75635162     0.91198734     706.68811    
     49900   0.90610083     176.68966      13.072382      189.76204      0.94932367     0.75540775     0.8993881      704.6946     
     50000   0.94335008     183.95327      16.570115      200.52338      0.98702719     0.82421931     0.97489072     698.51142    
     50100   1.0151411      197.95252      18.776567      216.72909      1.0614645      0.92773979     1.091111       692.02263    
     50200   0.97666996     190.45064      17.1334        207.58404      1.0233121      0.94605489     1.1045591      690.07491    
     50300   0.84591661     164.95374      14.653119      179.60686      0.89137332     0.87221126     1.0111106      692.7223     
     50400   0.90206441     175.90256      13.661168      189.56373      0.95680507     0.82692184     0.97699261     695.94714    
     50500   0.97334149     189.80159      13.60743       203.40902      1.0399842      0.823168       0.98776636     698.14658    
     50600   0.94837674     184.93346      14.274117      199.20758      1.0211585      0.79252586     0.95586324     699.57029    
     50700   0.88645139     172.85802      16.109008      188.96703      0.96031709     0.83269474     0.9878973      699.18232    
     50800   0.8409475      163.98476      18.603807      182.58857      0.91398349     0.87379274     1.0224831      698.17832    
     50900   0.92136801     179.66676      18.342225      198.00899      1.0000948      0.9162415      1.0784851      698.7088     
     51000   1.0036876      195.71907      14.15584       209.87492      1.0863519      0.85448699     1.0289059      702.80265    
     51100   0.92692635     180.75064      10.781438      191.53208      1.0018333      0.74576111     0.90504492     708.0853     
     51200   0.85845358     167.39845      11.86672       179.26517      0.92840483     0.73049521     0.87804843     709.06056    
     51300   0.90508496     176.49157      17.419257      193.91082      0.9792332      0.86934063     1.0260466      704.6557     
     51400   0.9611309      187.42053      21.660122      209.08065      1.0412545      0.99987386     1.1676031      701.52955    
     51500   0.93767789     182.84719      18.579104      201.42629      1.0195902      0.90628801     1.0704909      705.78982    
     51600   0.89980384     175.46175      13.659622      189.12137      0.98213014     0.72117313     0.87854039     713.63243    
     51700   0.89564727     174.65122      12.408221      187.05944      0.97657055     0.6577412      0.81341871     716.12115    
     51800   0.97830435     190.76935      13.38973       204.15908      1.058697       0.74200295     0.91031959     709.5489     
     51900   1.034496       201.72671      17.362333      219.08904      1.1071484      0.93845995     1.1140473      698.6141     
     52000   0.90339908     176.16282      22.143544      198.30636      0.9572169      1.0273742      1.1780591      692.18461    
     52100   0.89384603     174.29998      21.577776      195.87775      0.94077923     1.0047655      1.1507548      694.21779    
     52200   0.96455834     188.08888      14.95613       203.04501      1.013416       0.84904507     1.0036736      703.89326    
     52300   0.99095865     193.23694      9.7150447      202.95198      1.0427509      0.7242105      0.88114409     715.51971    
     52400   0.93165851     181.67341      9.5674993      191.24091      0.9802223      0.68850997     0.83452497     722.7458     
     52500   0.78831178     153.7208       14.457494      168.17829      0.82571662     0.76119051     0.88332803     722.25284    
     52600   0.85676449     167.06907      22.052734      189.12181      0.89076146     0.94346429     1.0746866      715.76286    
     52700   0.96633475     188.43528      25.442627      213.8779       0.99809132     1.0293957      1.175551       711.60939    
     52800   1.0139293      197.71621      18.895851      216.61206      1.0449478      0.91262408     1.0641565      715.71153    
     52900   0.97402753     189.93537      10.061729      199.9971       1.005217       0.68665153     0.83106343     724.27005    
     53000   0.90116691     175.72755      7.7488388      183.47639      0.93154381     0.60550489     0.73941772     725.95571    
     53100   0.9393415      183.17159      14.049386      197.22098      0.96984565     0.79797648     0.93938284     714.20541    
     53200   1.0884417      212.24614      27.031329      239.27747      1.1236732      1.1822291      1.3497837      698.22046    
     53300   1.0118387      197.30854      28.783578      226.09212      1.0541337      1.2006682      1.3607966      696.64486    
     53400   0.9224427      179.87633      16.327852      196.20418      0.97596385     0.86035571     1.0092519      712.45013    
     53500   0.90379435     176.2399       8.06618        184.30608      0.97024575     0.58644764     0.73431551     730.66658    
     53600   0.95404058     186.03791      8.0364576      194.07437      1.0307885      0.57764848     0.73514888     736.39888    
     53700   1.0168256      198.28099      14.265938      212.54693      1.0959251      0.72484685     0.8934714      728.39376    
     53800   0.92553319     180.47897      25.378495      205.85747      0.98950338     0.96488573     1.1178759      715.37635    
     53900   0.85836303     167.38079      32.419644      199.80043      0.90843904     1.1403679      1.279759       708.73833    
     54000   0.94434763     184.14779      24.800776      208.94856      0.9943837      1.0218938      1.1717656      715.32251    
     54100   1.004143       195.80788      12.992772      208.80066      1.0578227      0.71760275     0.87394712     730.01771    
     54200   0.95910648     187.02576      8.4784642      195.50423      1.0102965      0.56795692     0.71554757     738.46896    
     54300   0.91677316     178.77077      9.1910549      187.96182      0.95869485     0.58681555     0.72632898     732.02142    
     54400   0.92479172     180.33439      14.745632      195.08002      0.95319322     0.76318793     0.90201736     712.754      
     54500   0.97947321     190.99728      24.009524      215.0068       0.99478469     1.111927       1.256966       692.74237    
     54600   1.0335503      201.54231      25.662102      227.20441      1.0426745      1.1909384      1.3422631      687.00814    
     54700   0.9860564      192.281        17.504545      209.78554      0.99833311     0.89955175     1.0436148      695.74145    
     54800   0.91627053     178.67275      12.11727       190.79002      0.93261852     0.71491663     0.84900786     705.37407    
     54900   0.96915656     188.98553      10.5929        199.57843      0.98942709     0.71851264     0.86119307     707.29115    
     55000   1.0834408      211.27095      12.07418       223.34513      1.1087227      0.8201454      0.981714       703.0128     
     55100   1.0061571      196.20064      16.118592      212.31923      1.03081        0.9004127      1.0519656      698.28235    
     55200   0.95030463     185.3094       18.963728      204.27313      0.9730748      0.9456869      1.0889699      696.53425    
     55300   0.96239201     187.66644      17.953608      205.62005      0.98684713     0.90064479     1.0458561      698.8418     
     55400   0.99178056     193.39721      16.061047      209.45826      1.0227318      0.80673742     0.95787462     703.09095    
     55500   1.0091653      196.78722      15.527404      212.31463      1.0490446      0.75267474     0.9094489      705.36394    
     55600   0.94890474     185.03642      16.641499      201.67792      0.99182489     0.75305016     0.90314692     703.33472    
     55700   0.87875974     171.35815      20.121168      191.47932      0.91875258     0.8879583      1.0282544      697.35622    
     55800   0.94416395     184.11197      22.182782      206.29475      0.98670219     1.0257977      1.1772685      693.14831    
     55900   1.0354446      201.9117       17.646544      219.55824      1.0859733      0.95218018     1.1190436      696.84811    
     56000   0.97288343     189.71227      11.254364      200.96663      1.0248268      0.73684563     0.89348653     705.83089    
     56100   0.92624958     180.61867      9.678036       190.2967       0.97644166     0.6501762      0.79871085     710.12884    
     56200   0.9452654      184.32675      13.194297      197.52105      0.99051821     0.75288799     0.90307499     705.08817    
     56300   0.98461169     191.99928      19.572067      211.57135      1.0212858      0.93141759     1.0855515      695.74236    
     56400   0.99041198     193.13034      22.534774      215.66511      1.0199637      1.0157027      1.168818       690.4538     
     56500   0.89787659     175.08594      20.092585      195.17852      0.92211503     0.91637502     1.0536805      692.57103    
     56600   0.89437629     174.40338      17.066477      191.46985      0.91617226     0.7967759      0.9316267      697.32696    
     56700   1.0284359      200.545        15.191675      215.73667      1.0496781      0.79349167     0.94648036     699.46799    
     56800   1.0327454      201.38536      14.181639      215.567        1.0517277      0.79336157     0.94612826     698.91449    
     56900   0.96889484     188.93449      14.678408      203.6129       0.98746506     0.82680851     0.97105187     695.99576    
     57000   0.9424878      183.78512      17.436871      201.22199      0.96490978     0.89547004     1.0384754      691.81627    
     57100   0.97891972     190.88934      20.730025      211.61937      1.0094191      0.97107313     1.123156       689.5611     
     57200   1.1389246      222.0903       20.632994      242.72329      1.1824834      0.99652843     1.1758915      693.43897    
     57300   1.0248751      199.85065      16.389869      216.24052      1.070474       0.83865515     0.99996787     705.45115    
     57400   0.92834306     181.0269       12.33588       193.36278      0.97235089     0.70166386     0.84618078     718.75258    
     57500   0.92806384     180.97245      11.541711      192.51416      0.97014688     0.66814124     0.81059178     725.02769    
     57600   1.0055888      196.08981      13.515328      209.60514      1.046825       0.76225432     0.91547228     722.0427     
     57700   1.0415521      203.10265      16.741752      219.8444       1.0810454      0.90435256     1.0633328      714.82881    
     57800   0.89480944     174.48784      18.414126      192.90197      0.9286109      0.93606425     1.0735096      710.06531    
[...]
   2385900   0.85963354     167.62854      153.24985      320.87839      0.88916948     10.313046      10.572362      358.24253    
   2386000   0.84697844     165.1608       153.88424      319.04503      0.88700447     10.180066      10.4445        358.24253    
   2386100   0.88636373     172.84093      142.39681      315.23774      0.92621061     9.8226251      10.097687      358.24253    
   2386200   0.94445333     184.1684       126.7658       310.9342       0.97955853     9.432019       9.7190934      358.24253    
   2386300   0.98493243     192.06182      115.92104      307.98286      1.0165713      9.1658205      9.4611332      358.24253    
   2386400   0.98946765     192.94619      114.63212      307.57831      1.0209702      9.081075       9.3775169      358.24253    
   2386500   0.96102159     187.39921      123.2423       310.64151      0.99158419     9.1356625      9.4235539      358.24253    
   2386600   0.92242321     179.87253      133.99653      313.86906      0.95488045     9.5106537      9.7895358      358.24253    
   2386700   0.89017856     173.58482      142.68258      316.2674       0.92523519     9.9581313      10.230319      358.24253    
   2386800   0.8770854      171.03165      148.37734      319.40899      0.90579922     10.156211      10.419629      358.24253    
   2386900   0.89175        173.89125      149.02568      322.91693      0.90358646     10.225678      10.479304      358.24253    
   2387000   0.92736382     180.83595      144.12639      324.96233      0.92030748     10.153766      10.401682      358.24253    
   2387100   0.9592499      187.05373      138.6688       325.72253      0.93893387     10.001668      10.247462      358.24253    
   2387200   0.96654007     188.47531      138.63387      327.10919      0.93905306     10.027665      10.269589      358.24253    
   2387300   0.94905262     185.06526      144.31641      329.38167      0.91965886     10.287141      10.522721      358.24253    
   2387400   0.92345571     180.07386      150.21652      330.29038      0.89952218     10.431488      10.664532      358.24253    
   2387500   0.91961001     179.32395      149.06334      328.38729      0.90345787     10.337748      10.576104      358.24253    
   2387600   0.94298379     183.88184      142.21405      326.09589      0.92683429     9.9415217      10.186274      358.24253    
   2387700   0.98944772     192.9423       132.27656      325.21887      0.96075057     9.4560845      9.7032847      358.24253    
   2387800   1.0368879      202.19315      124.58173      326.77488      0.98701278     9.0318136      9.2746703      358.24253    
   2387900   1.0608996      206.87541      122.22075      329.09617      0.99507055     9.0811844      9.3175613      358.24253    
   2388000   1.0415452      203.10132      127.68099      330.78231      0.97643507     9.3510109      9.5826812      358.24253    
   2388100   0.99940845     194.88465      135.2152       330.09985      0.95072129     9.4684376      9.7020131      358.24253    
   2388200   0.98422729     191.92432      134.79813      326.72245      0.95214469     9.439552       9.6825552      358.24253    
   2388300   1.0109337      197.13207      126.33046      323.46253      0.9810445      9.173007       9.4251098      358.24253    
   2388400   1.0519462      205.12952      115.2082       320.33772      1.0190042      8.8215819      9.0824072      358.24253    
   2388500   1.0682715      208.31295      108.8244       317.13735      1.0407917      8.6798799      8.9496386      358.24253    
   2388600   1.0264582      200.15935      113.97439      314.13374      1.0232152      8.6521227      8.9302658      358.24253    
   2388700   0.95309931     185.85437      125.80417      311.65854      0.98284052     8.7752711      9.0603235      358.24253    
   2388800   0.89275687     174.08759      137.42085      311.50844      0.94319326     9.2109847      9.4964562      358.24253    
   2388900   0.87456474     170.54013      143.68196      314.22208      0.92182431     9.6498198      9.9277165      358.24253    
   2389000   0.897132       174.94074      143.39654      318.33728      0.92279835     9.6742546      9.940664       358.24253    
   2389100   0.93252575     181.84252      140.55671      322.39923      0.93249059     9.6810087      9.9360796      358.24253    
   2389200   0.95853443     186.91421      137.80452      324.71874      0.94188366     9.769661       10.018257      358.24253    
   2389300   0.96240549     187.66907      137.1053       324.77437      0.94427005     9.7854623      10.033903      358.24253    
   2389400   0.94319468     183.92296      140.15138      324.07434      0.93387407     9.6224615      9.8728565      358.24253    
   2389500   0.92523093     180.42003      142.72819      323.14822      0.92507948     9.6669877      9.9199679      358.24253    
   2389600   0.9159946      178.61895      144.29335      322.9123       0.91973766     9.9532165      10.206855      358.24253    
   2389700   0.91740129     178.89325      145.28172      324.17497      0.9163643      10.086121      10.336235      358.24253    
   2389800   0.92646632     180.66093      146.97063      327.63157      0.91060012     10.139416      10.379881      358.24253    
   2389900   0.94046633     183.39093      148.07042      331.46135      0.9068467      10.216409      10.446184      358.24253    
   2390000   0.96751949     188.6663       144.59762      333.26392      0.91869921     10.055232      10.279975      358.24253    
   2390100   0.99984471     194.96972      137.77144      332.74116      0.94199669     9.845058       10.07126       358.24253    
   2390200   1.0188129      198.66851      132.59166      331.26017      0.95967502     9.8247498      10.055086      358.24253    
   2390300   1.010864       197.11849      132.86954      329.98802      0.95872672     9.866135       10.100022      358.24253    
   2390400   0.98780835     192.62263      135.45573      328.07836      0.94990007     9.8366311      10.075849      358.24253    
   2390500   0.96909318     188.97317      138.07047      327.04364      0.94097615     9.9239446      10.166051      358.24253    
   2390600   0.96796144     188.75248      137.54238      326.29486      0.94277838     9.9162175      10.160414      358.24253    
   2390700   0.96865669     188.88806      136.85064      325.7387       0.94513929     9.8358486      10.081598      358.24253    
   2390800   0.96137613     187.46835      136.67014      324.13848      0.94575545     9.6387467      9.8889626      358.24253    
   2390900   0.95120767     185.4855       135.09418      320.57968      0.95113415     9.425436       9.685586       358.24253    
   2391000   0.94230447     183.74937      132.4916       316.24098      0.96001661     9.2200741      9.4923351      358.24253    
   2391100   0.93215422     181.77007      131.12189      312.89196      0.96469131     9.2178372      9.4994466      358.24253    
   2391200   0.92145203     179.68315      133.00079      312.68394      0.9582788      9.1705381      9.4527283      358.24253    
   2391300   0.93167308     181.67625      132.03727      313.71352      0.96156729     9.3142166      9.5935329      358.24253    
   2391400   0.95711416     186.63726      126.97523      313.61249      0.97884364     9.4359273      9.7155254      358.24253    
   2391500   0.96103298     187.40143      124.97919      312.38062      0.98565601     9.4544922      9.7375289      358.24253    
   2391600   0.94773401     184.80813      126.81162      311.61975      0.97940214     9.4724415      9.7576022      358.24253    
   2391700   0.95314279     185.86284      126.82336      312.6862       0.97936212     9.556259       9.8384429      358.24253    
   2391800   0.98933104     192.91955      121.87669      314.79624      0.99624486     9.3910067      9.6673005      358.24253    
   2391900   1.0352084      201.86563      115.15907      317.0247       1.0191719      9.0618996      9.3319729      358.24253    
   2392000   1.0655779      207.78769      111.12501      318.9127       1.0329399      8.855969       9.120772       358.24253    
   2392100   1.0717353      208.98838      111.3025       320.29088      1.0323342      8.8856956      9.1466516      358.24253    
   2392200   1.0606541      206.82755      115.77315      322.6007       1.0170758      9.1147212      9.3692294      358.24253    
   2392300   1.027663       200.39429      126.97054      327.36484      0.97885963     9.3404705      9.5816803      358.24253    
   2392400   0.9958025      194.18149      137.26801      331.44949      0.94371489     9.4573023      9.6871102      358.24253    
   2392500   0.98891496     192.83842      139.01513      331.85354      0.93775192     9.3136532      9.5423332      358.24253    
   2392600   0.98845919     192.74954      136.88913      329.63867      0.94500775     9.2402956      9.4751581      358.24253    
   2392700   0.97568644     190.25886      136.47984      326.73869      0.94640481     9.1620092      9.4049669      358.24253    
   2392800   0.96692461     188.5503       134.45254      323.00284      0.95332394     9.2822178      9.5356037      358.24253    
   2392900   0.97480617     190.0872       128.83094      318.91814      0.97251023     9.1350632      9.3998511      358.24253    
   2393000   0.99034675     193.11762      122.34846      315.46608      0.99463454     8.9820875      9.2565114      358.24253    
   2393100   0.99940272     194.88353      118.91332      313.79685      1.0063585      8.9884449      9.2675282      358.24253    
   2393200   0.98774385     192.61005      120.43904      313.04909      1.0011513      9.0294005      9.3105711      358.24253    
   2393300   0.96581837     188.33458      124.64471      312.97929      0.98679762     9.109676       9.3910416      358.24253    
   2393400   0.95227294     185.69322      126.46963      312.16285      0.98056935     9.2326494      9.5162941      358.24253    
   2393500   0.95061591     185.3701       124.09787      309.46797      0.98866383     9.2369739      9.5281409      358.24253    
   2393600   0.93996692     183.29355      124.23928      307.53282      0.9881812      9.142311       9.4388798      358.24253    
   2393700   0.92168285     179.72815      130.01828      309.74643      0.96845784     9.0729539      9.3633438      358.24253    
   2393800   0.92207089     179.80382      134.86379      314.66761      0.95192038     9.4166685      9.6933215      358.24253    
   2393900   0.95170154     185.5818       133.21398      318.79578      0.95755103     9.7522201      10.01735       358.24253    
   2394000   0.97780693     190.67235      131.10984      321.78219      0.96473212     9.8038043      10.060597      358.24253    
   2394100   0.97761543     190.63501      132.93899      323.57399      0.95848956     9.5342473      9.7860389      358.24253    
   2394200   0.96940369     189.03372      134.33612      323.36984      0.95372127     9.2025781      9.4549396      358.24253    
   2394300   0.9771475      190.54376      130.9629       321.50666      0.9652339      8.9848934      9.2424557      358.24253    
   2394400   0.99430375     193.88923      125.04119      318.93042      0.98544422     8.8543288      9.1190822      358.24253    
   2394500   0.99412779     193.85492      124.26238      318.1173       0.98810222     8.8436659      9.110689       358.24253    
   2394600   0.9797813      191.05735      128.43441      319.49177      0.97386329     9.1488557      9.4120421      358.24253    
   2394700   0.96506374     188.18743      134.20371      322.39114      0.95417304     9.6479822      9.9030755      358.24253    
   2394800   0.95886849     186.97936      138.68829      325.66764      0.93886726     10.087578      10.333526      358.24253    
   2394900   0.94531499     184.33642      144.95542      329.29184      0.91747768     10.542812      10.778642      358.24253    
   2395000   0.9238552      180.15176      151.89876      332.05053      0.8937806      10.706289      10.934419      358.24253    
   2395100   0.92975131     181.30151      150.7616       332.0631       0.89766172     10.485209      10.713304      358.24253    
   2395200   0.96522312     188.21851      140.62852      328.84703      0.9322454      10.207717      10.444789      358.24253    
   2395300   0.99066326     193.17933      129.19894      322.37827      0.97125401     9.7244061      9.9795352      358.24253    
   2395400   0.98316627     191.71742      125.35121      317.06863      0.98438626     9.3508993      9.6208498      358.24253    
   2395500   0.95413381     186.05609      128.77255      314.82864      0.97270945     9.3990204      9.6752237      358.24253    
   2395600   0.92134897     179.66305      134.27263      313.93568      0.95393797     9.5684132      9.8471092      358.24253    
   2395700   0.90889091     177.23373      135.66878      312.90251      0.94917311     9.5964933      9.8780735      358.24253    
   2395800   0.92802954     180.96576      131.1395       312.10526      0.96463129     9.4510552      9.7348607      358.24253    
   2395900   0.95676535     186.56924      125.52953      312.09877      0.98377789     9.3777487      9.6615723      358.24253    
   2396000   0.97527252     190.17814      121.97192      312.15006      0.99591981     9.3138845      9.5975648      358.24253    
   2396100   0.97626778     190.37222      122.76289      313.13511      0.9932203      9.1971688      9.4780996      358.24253    
   2396200   0.9654706      188.26677      127.63923      315.906        0.97657752     9.388827       9.6620231      358.24253    
   2396300   0.94969356     185.19025      135.48517      320.67542      0.94979975     9.6544215      9.9143043      358.24253    
   2396400   0.94252259     183.79191      139.64579      323.4377       0.93559982     9.8806893      10.132862      358.24253    
   2396500   0.95202595     185.64506      135.94345      321.58851      0.94823566     9.8525306      10.109865      358.24253    
   2396600   0.97157758     189.45763      128.4794       317.93703      0.97371007     9.5379738      9.8055005      358.24253    
   2396700   0.98815295     192.68982      123.02923      315.71906      0.99231131     9.3469189      9.6206368      358.24253    
   2396800   0.99841793     194.6915       120.70669      315.39818      1.0002381      9.1214784      9.3960921      358.24253    
   2396900   1.0071041      196.3853       120.85638      317.24168      0.99972729     9.0649673      9.3344351      358.24253    
   2397000   1.0204528      198.98829      122.81157      321.79986      0.99305429     9.1139622      9.3707062      358.24253    
   2397100   1.0279389      200.44809      126.25826      326.70635      0.98129085     9.3086658      9.5517138      358.24253    
   2397200   1.0219077      199.272        129.5641       328.83609      0.9700081      9.4250681      9.6621712      358.24253    
   2397300   1.0029386      195.57303      132.88415      328.45717      0.95867693     9.4759577      9.7141184      358.24253    
   2397400   0.99256204     193.5496       133.47104      327.02064      0.95667377     9.592214       9.8343846      358.24253    
   2397500   0.98763454     192.58873      133.52303      326.11177      0.95649623     9.805082       10.04979       358.24253    
   2397600   0.98593223     192.25678      134.35218      326.60897      0.95366633     9.6370218      9.8803415      358.24253    
   2397700   0.98042547     191.18297      136.74214      327.9251       0.94550949     9.5363289      9.7759747      358.24253    
   2397800   0.96136402     187.46598      140.8418       328.30778      0.93151747     9.656903       9.8954806      358.24253    
   2397900   0.93290689     181.91684      146.00998      327.92682      0.91387866     9.8470061      10.086647      358.24253    
   2398000   0.90667263     176.80116      150.0639       326.86506      0.90004289     9.9885327      10.231138      358.24253    
   2398100   0.89413278     174.35589      150.53185      324.88775      0.89844568     10.031736      10.279861      358.24253    
   2398200   0.89339202     174.21144      148.45006      322.66151      0.90555081     10.077701      10.33204       358.24253    
   2398300   0.90100998     175.69695      144.2533       319.95024      0.91987436     9.9816081      10.243515      358.24253    
   2398400   0.9265446      180.6762       135.80872      316.48491      0.94869542     9.8314078      10.102988      358.24253    
   2398500   0.95841508     186.89094      125.86256      312.7535       0.98264124     9.5216803      9.8036762      358.24253    
   2398600   0.9802619      191.15107      119.53033      310.68141      1.0042528      9.3191336      9.6069135      358.24253    
   2398700   0.98649343     192.36622      117.68785      310.05406      1.0105412      9.1918044      9.4813355      358.24253    
   2398800   0.97470661     190.06779      119.48972      309.55751      1.0043915      9.2065916      9.4975088      358.24253    
   2398900   0.9477276      184.80688      124.25355      309.06044      0.98813279     9.1984798      9.4907846      358.24253    
   2399000   0.93010226     181.36994      127.22714      308.59708      0.97798408     9.1242936      9.4178919      358.24253    
   2399100   0.93182726     181.70632      126.73189      308.4382       0.97967428     9.0783359      9.3723776      358.24253    
   2399200   0.94207135     183.70391      125.79643      309.50034      0.98286697     9.0497681      9.340845       358.24253    
   2399300   0.95637403     186.49294      125.64547      312.13841      0.98338191     9.1496251      9.4333378      358.24253    
   2399400   0.94856019     184.96924      132.9486       317.91784      0.95845662     9.5773059      9.844886       358.24253    
   2399500   0.92137509     179.66814      144.59958      324.26773      0.91869248     10.026918      10.276773      358.24253    
   2399600   0.90870745     177.19795      149.90533      327.10328      0.90058424     10.11949       10.36143       358.24253    
   2399700   0.92682617     180.7311       145.52125      326.25235      0.91554669     10.001776      10.246091      358.24253    
   2399800   0.9533661      185.90639      138.7935       324.69989      0.93850825     9.7881217      10.03677       358.24253    
   2399900   0.96786249     188.73319      133.88061      322.61379      0.95527591     9.5072515      9.7617234      358.24253    
   2400000   0.97945893     190.99449      129.18577      320.18026      0.97129926     9.312418       9.5736829      358.24253    
Loop time of 79.8481 on 4 procs for 200000 steps with 196 atoms

Performance: 21641.087 tau/day, 2504.755 timesteps/s, 490.932 katom-step/s
100.0% CPU use with 4 MPI tasks x 1 OpenMP threads

MPI task timing breakdown:
Section |  min time  |  avg time  |  max time  |%varavg| %total
---------------------------------------------------------------
Pair    | 25.277     | 29.002     | 31.488     |  45.9 | 36.32
Neigh   | 0.00043366 | 0.0004615  | 0.00047958 |   0.0 |  0.00
Comm    | 18.742     | 21.663     | 24.919     |  51.9 | 27.13
Output  | 0.64702    | 0.67447    | 0.69842    |   2.3 |  0.84
Modify  | 26.594     | 27.485     | 28.257     |  11.4 | 34.42
Other   |            | 1.023      |            |       |  1.28

Nlocal:             49 ave          50 max          47 min
Histogram: 1 0 0 0 0 0 1 0 0 2
Nghost:            565 ave         567 max         563 min
Histogram: 1 0 0 0 0 2 0 0 0 1
Neighs:          182.5 ave         194 max         171 min
Histogram: 1 0 1 0 0 0 0 1 0 1

Total # of neighbors = 730
Ave neighs/atom = 3.7244898
Neighbor list builds = 16
Dangerous builds = 0
unfix 1
undump mydump
unfix 1rdf
Total wall time: 0:10:31
