LAMMPS data file for polygons
1 atoms
1 bodies
1 atom types
-2.2 2.2 xlo xhi
-2.2 2.2 ylo yhi
-2.2 2.2 zlo zhi

Atoms

1 1 1 1 0 0 0

Bodies

1 3 79
8 12 6
0.66666666666 0.66666666666 0.66666666666 0 0 0
1.0 1.0 1.0
1.0 -1.0 1.0
-1.0 -1.0 1.0
-1.0 1.0 1.0
1.0 1.0 -1.0
1.0 -1.0 -1.0
-1.0 -1.0 -1.0
-1.0 1.0 -1.0
0 1
1 2
2 3
3 0
4 5
5 6
6 7
7 4
0 4
1 5
2 6
3 7
0 1 2 3
4 5 6 7
0 1 5 4
1 2 6 5
2 3 7 6
3 0 4 7
0.3
