LAMMPS (2 Aug 2023 - Update 1)
OMP_NUM_THREADS environment is not set. Defaulting to 1 thread. (src/comm.cpp:98)
  using 1 OpenMP thread(s) per MPI task
# 3d rounded 3d

variable    r     index 5
variable    steps index 100000

units       lj
dimension   3
newton on

neighbor     1.0 bin
neigh_modify every 1 delay 0 check yes

atom_style  body rounded/polyhedron 1 20

read_data   data.3d
Reading data file ...
  orthogonal box = (-2.2 -2.2 -2.2) to (2.2 2.2 2.2)
  1 by 2 by 2 MPI processor grid
  reading atoms ...
  1 atoms
  1 bodies
  read_data CPU = 0.001 seconds

replicate   $r $r $r
replicate   5 $r $r
replicate   5 5 $r
replicate   5 5 5
Replication is creating a 5x5x5 = 125 times larger system...
  orthogonal box = (-2.2 -2.2 -2.2) to (19.8 19.8 19.8)
  1 by 2 by 2 MPI processor grid
  125 atoms
  replicate CPU = 0.001 seconds

change_box all x final -11 11 y final -11 11 z final -11 11
Changing box ...
  orthogonal box = (-11 -2.2 -2.2) to (11 19.8 19.8)
  orthogonal box = (-11 -11 -2.2) to (11 11 19.8)
  orthogonal box = (-11 -11 -11) to (11 11 11)

velocity all create 3 9823 rot yes dist gaussian
set atom * quat/random 128
Setting atom values ...
  125 settings made for quat/random

variable cut_inner  equal 0.0
variable k_n        equal 100000
variable k_na       equal 0
variable c_n        equal 0
variable c_t        equal 0
variable mu         equal 0
variable A_ua       equal 1

pair_style body/rounded/polyhedron ${c_n} ${c_t} ${mu} ${A_ua} ${cut_inner}
pair_style body/rounded/polyhedron 0 ${c_t} ${mu} ${A_ua} ${cut_inner}
pair_style body/rounded/polyhedron 0 0 ${mu} ${A_ua} ${cut_inner}
pair_style body/rounded/polyhedron 0 0 0 ${A_ua} ${cut_inner}
pair_style body/rounded/polyhedron 0 0 0 1 ${cut_inner}
pair_style body/rounded/polyhedron 0 0 0 1 0
pair_coeff * * ${k_n} ${k_na}
pair_coeff * * 100000 ${k_na}
pair_coeff * * 100000 0

comm_modify vel yes

timestep     0.0001

compute 1 all temp/body
compute 1p all pressure 1

thermo_style custom step temp ke pe etotal c_1 press c_1p c_1p[1] c_1p[2] c_1p[3] vol

thermo       100
thermo_modify norm no

compute 10 all property/atom x y z quatw quati quatj quatk
dump mydump all custom 100 dump.quat id c_10[1] c_10[2] c_10[3] c_10[4] c_10[5] c_10[6] c_10[7]


fix def all deform 200000 x scale 0.95 y scale 0.95 z scale 0.95

fix          1 all nvt/body temp 1.5 1.5 0.01

variable i loop 9

label loop_start
    run          100000
Generated 0 of 0 mixed pair_coeff terms from geometric mixing rule
Neighbor list info ...
  update: every = 1 steps, delay = 0 steps, check = yes
  max neighbors/atom: 2000, page size: 100000
  master list distance cutoff = 4.4641016
  ghost atom cutoff = 4.4641016
  binsize = 2.2320508, bins = 10 10 10
  1 neighbor lists, perpetual/occasional/extra = 1 0 0
  (1) pair body/rounded/polyhedron, perpetual
      attributes: half, newton on
      pair build: half/bin/atomonly/newton
      stencil: half/bin/3d
      bin: standard
Per MPI rank memory allocation (min/avg/max) = 6.889 | 6.906 | 6.923 Mbytes
   Step          Temp          KinEng         PotEng         TotEng          c_1           Press           c_1p         c_1p[1]        c_1p[2]        c_1p[3]         Volume    
         0   3              558            0              558            1.4939759      0.034936138    0.034936138    0.030009013    0.03964281     0.035156592    10648        
       100   3.0123594      560.29885      0              560.29885      1.5001308      0.035080068    0.035080068    0.030132644    0.039806131    0.03530143     10648        
       200   3.0606487      569.28066      0              569.28066      1.5241785      0.035642415    0.035642415    0.030615682    0.040444238    0.035867326    10648        
       300   3.0930475      575.30683      0              575.30683      1.5403128      0.036019711    0.036019711    0.030939767    0.040872364    0.036247002    10648        
       400   2.9667026      551.80668      0              551.80668      1.477394       0.034548377    0.034548377    0.029675938    0.039202809    0.034766384    10648        
       500   2.8505721      530.20641      0              530.20641      1.419562       0.033195993    0.033195993    0.028514285    0.037668229    0.033405466    10648        
       600   3.0287557      563.34856      0              563.34856      1.508296       0.035271009    0.035271009    0.030296656    0.040022795    0.035493576    10648        
       700   3.2883909      611.64072      0              611.64072      1.6375923      0.03829456     0.03829456     0.032893789    0.043453686    0.038536206    10648        
       800   3.039049       565.26312      0              565.26312      1.513422       0.035390879    0.035390879    0.03039962     0.040158814    0.035614202    10648        
       900   2.8644833      532.79388      0              532.79388      1.4264897      0.033357994    0.033357994    0.028653438    0.037852055    0.03356849     10648        
      1000   2.9644102      551.38029      0              551.38029      1.4762525      0.034521681    0.034521681    0.029653008    0.039172516    0.034739519    10648        
      1100   3.1002412      576.64486      0              576.64486      1.5438952      0.036103485    0.036103485    0.031011726    0.040967424    0.036331305    10648        
      1200   3.0864593      574.08143      0              574.08143      1.5370319      0.03594299     0.03594299     0.030873866    0.040785307    0.036169797    10648        
      1300   2.769293       515.0885       0              515.0885       1.3790857      0.032249468    0.032249468    0.02770125     0.036594185    0.032452968    10648        
      1400   2.748039       511.13526      0              511.13526      1.3685014      0.032001957    0.032001957    0.027488646    0.03631333     0.032203896    10648        
      1500   3.0972372      576.08611      0              576.08611      1.5423992      0.036068502    0.036068502    0.030981677    0.040927728    0.036296101    10648        
      1600   3.1002822      576.65248      0              576.65248      1.5439156      0.036103962    0.036103962    0.031012136    0.040967966    0.036331785    10648        
      1700   2.9029309      539.94514      2.6474617      542.5926       1.470845       0.1016519      0.1022414      0.028290058    0.24307976     0.035354382    10648        
      1800   2.7880434      518.57607      2.099269       520.67534      1.4440578      0.089256412    0.090557409    0.20492888     0.031608503    0.035134841    10648        
      1900   2.9952443      557.11543      0              557.11543      1.5579705      0.034880756    0.036432631    0.029796863    0.041247255    0.038253774    10648        
      2000   3.1720139      589.99458      0              589.99458      1.6499169      0.036939305    0.038582767    0.031555378    0.043681534    0.040511388    10648        
      2100   2.8360241      527.50048      0              527.50048      1.4751524      0.033026577    0.034495957    0.028212932    0.039054647    0.036220293    10648        
      2200   2.7466669      510.88005      0              510.88005      1.4286735      0.031985978    0.033409062    0.027324002    0.037824117    0.035079067    10648        
      2300   2.8804128      535.75678      0              535.75678      1.4982411      0.0335435      0.035035879    0.028654513    0.039665921    0.036787203    10648        
      2400   2.9830322      554.84398      0.71080664     555.55479      1.5517318      0.08251866     0.08406686     0.084864965    0.11396909     0.053366523    10648        
      2500   2.8154416      523.67214      0              523.67214      1.5012232      0.032786886    0.035105613    0.026660105    0.0392922      0.039364535    10648        
      2600   2.4721356      459.81723      0              459.81723      1.3181688      0.028788957    0.030824947    0.023409257    0.034501034    0.034564549    10648        
      2700   2.6623362      495.19454      0              495.19454      1.4195858      0.031003915    0.033196549    0.025210313    0.037155467    0.037223868    10648        
      2800   2.8894935      537.4458       0.049907387    537.49571      1.5380505      0.042806017    0.045123577    0.027472087    0.068506905    0.039391737    10648        
      2900   2.7731627      515.80826      1.1565762      516.96483      1.5319953      0.13766261     0.14119329     0.02940198     0.27577627     0.11840161     10648        
      3000   2.631601       489.47779      1.0532326      490.53103      1.4599216      0.072953674    0.076447471    0.13585521     0.039930267    0.053556932    10648        
      3100   2.4861839      462.4302       0              462.4302       1.3859497      0.028952554    0.032409982    0.024974255    0.038287663    0.033968027    10648        
      3200   2.626942       488.6112       0              488.6112       1.4744486      0.030591736    0.034479499    0.026272017    0.040926906    0.036239575    10648        
      3300   2.8594286      531.85373      1.5007491      533.35447      1.6156941      0.0968863      0.10136965     0.071870777    0.053289579    0.17894859     10648        
      3400   2.693026       500.90283      0              500.90283      1.5290097      0.031361309    0.035755393    0.027122609    0.043636561    0.036507009    10648        
      3500   2.5056667      466.05401      0.21549987     466.26951      1.4268429      0.048676864    0.052863679    0.035696774    0.088645208    0.034249055    10648        
      3600   2.6358772      490.27316      0.69963351     490.97279      1.4696886      0.10368484     0.10735724     0.23605488     0.037654906    0.048361933    10648        
      3700   2.6520662      493.28432      8.6721787      501.9565       1.5023072      0.14451573     0.14876237     0.026333738    0.27848906     0.14146431     10648        
      3800   2.6111263      485.6695       0.69916663     486.36866      1.5181351      0.065919704    0.071013241    0.030400618    0.13136392     0.051275189    10648        
      3900   2.5336103      471.25151      0.23985378     471.49136      1.4901941      0.05055603     0.055898879    0.043157485    0.08602947     0.038509683    10648        
      4000   2.4977396      464.57957      0              464.57957      1.4738001      0.029087126    0.034464334    0.027812299    0.036503447    0.039077257    10648        
      4100   2.5710416      478.21374      0              478.21374      1.5170522      0.029940755    0.035475771    0.028628515    0.037574726    0.040224071    10648        
      4200   2.6817979      498.81441      0.1687937      498.9832       1.5824934      0.048201827    0.053977364    0.033906144    0.039835618    0.088190332    10648        
      4300   2.5130702      467.43105      2.4988425      469.9299       1.5009393      0.11680284     0.12263616     0.041687258    0.16369936     0.16252187     10648        
      4400   2.3214688      431.7932       0.48774971     432.28095      1.3987475      0.055402221    0.061077088    0.038065621    0.10086649     0.044299156    10648        
      4500   2.4374646      453.36841      0              453.36841      1.4727981      0.0283852      0.034440902    0.029062543    0.036928803    0.03733136     10648        
      4600   2.6501095      492.92037      0.96809417     493.88846      1.6366358      0.068752131    0.076162795    0.032494663    0.15427639     0.041717329    10648        
      4700   2.5098812      466.83791      0              466.83791      1.5674773      0.029228519    0.036654944    0.03096737     0.038310612    0.040686849    10648        
      4800   2.3773408      442.18538      0              442.18538      1.4857399      0.027685035    0.034743541    0.029644851    0.036366058    0.038219714    10648        
      4900   2.3309629      433.55909      0              433.55909      1.4652061      0.027144947    0.034263365    0.028933805    0.037031173    0.036825117    10648        
      5000   2.416841       449.53243      4.4999149      454.03235      1.5185645      0.11622392     0.12359002     0.2962635      0.048104226    0.026402336    10648        
      5100   2.6415108      491.321        0.007364775    491.32836      1.6853535      0.03423753     0.042887576    0.036234191    0.049875641    0.042552897    10648        
      5200   2.4163686      449.44456      0.30070329     449.74526      1.5425215      0.04767782     0.055609653    0.032573726    0.095356353    0.03889888     10648        
      5300   2.227853       414.38066      0.39163499     414.77229      1.4257172      0.078367675    0.085763413    0.035840926    0.17719019     0.04425912     10648        
      5400   2.3193194      431.39341      1.5845553      432.97796      1.4855815      0.072749743    0.080480226    0.15957006     0.039623691    0.042246929    10648        
      5500   2.4745875      460.27328      0.57743955     460.85072      1.5779233      0.069919028    0.078000737    0.036205972    0.15317434     0.044621894    10648        
      5600   2.3799183      442.66481      0.14107589     442.80588      1.5199913      0.042695629    0.050525077    0.071012211    0.042943734    0.037619284    10648        
      5700   2.0854521      387.8941       0              387.8941       1.3412204      0.024285881    0.031364001    0.02775215     0.033258585    0.033081266    10648        
      5800   2.1913327      407.58788      0              407.58788      1.4144408      0.025518901    0.033076235    0.029323024    0.035186281    0.034719401    10648        
      5900   2.304504       428.63774      0.0048899564   428.64263      1.5069486      0.029402654    0.037805332    0.039394895    0.036833746    0.037187354    10648        
      6000   2.345051       436.17948      0.51152087     436.691        1.5281759      0.054315504    0.06274239     0.039633391    0.098972397    0.049621382    10648        
      6100   2.2514305      418.76607      1.4518343      420.2179       1.4888913      0.13320945     0.14180792     0.23813504     0.036271962    0.15101676     10648        
      6200   2.1215875      394.61528      0.6305039      395.24579      1.4010746      0.061340499    0.069397479    0.067833202    0.041803691    0.098555545    10648        
      6300   2.1165971      393.68706      0.0032453513   393.69031      1.3994702      0.027020961    0.035098537    0.029890541    0.033806542    0.041598528    10648        
      6400   2.3853518      443.67544      0              443.67544      1.5837423      0.027778327    0.037035297    0.033270135    0.038259488    0.039576266    10648        
      6500   2.3947839      445.42981      3.205611       448.63542      1.5696541      0.1978471      0.20666478     0.01175951     0.47769924     0.1305356      10648        
      6600   2.223259       413.52618      0.1192199      413.6454       1.4581516      0.045763628    0.053971333    0.050159275    0.055923557    0.055831167    10648        
      6700   2.1924326      407.79247      0              407.79247      1.4418602      0.02553171     0.033717429    0.030714271    0.034291899    0.036146118    10648        
      6800   2.3107737      429.8039       0              429.8039       1.4985306      0.026909836    0.035042648    0.032246704    0.035880622    0.037000617    10648        
      6900   2.3264059      432.71149      0.53080172     433.24229      1.5114725      0.054242129    0.062495541    0.034398283    0.11561234     0.037475995    10648        
      7000   2.2973115      427.29994      0              427.29994      1.5013829      0.026753064    0.035109347    0.031883641    0.036189737    0.037254664    10648        
      7100   2.268505       421.94194      0              421.94194      1.483853       0.026417602    0.034699418    0.031537717    0.035842903    0.036717633    10648        
      7200   2.261751       420.68568      0              420.68568      1.4807522      0.026338948    0.034626907    0.031318748    0.035327152    0.037234821    10648        
      7300   2.3354576      434.39512      0              434.39512      1.5277797      0.02719729     0.035726628    0.032257671    0.036364816    0.038557397    10648        
      7400   2.324347       432.32854      1.5625489      433.89109      1.5576896      0.0786034      0.08796156     0.04830686     0.16370702     0.051870799    10648        
      7500   2.1974642      408.72834      0.064314151    408.79266      1.4822106      0.035960354    0.04503106     0.031191765    0.036146242    0.067755173    10648        
      7600   2.0413394      379.68913      0.69560387     380.38474      1.3856303      0.076133083    0.084763422    0.046012413    0.076066728    0.13221113     10648        
      7700   2.2194597      412.81951      0              412.81951      1.498829       0.025846451    0.035049627    0.030639909    0.036159352    0.038349618    10648        
      7800   2.4205906      450.22984      1.1492654      451.37911      1.6265113      0.085762562    0.095609301    0.09054132     0.058320062    0.13796652     10648        
      7900   2.3107527      429.8          1.5296331e-05  429.80002      1.5344971      0.027060333    0.036034455    0.031757167    0.037525664    0.038820533    10648        
      8000   2.1998156      409.16569      0              409.16569      1.4635824      0.025617687    0.034225396    0.03009243     0.036173058    0.036410699    10648        
      8100   2.2162441      412.2214       0.75833873     412.97974      1.4747663      0.066080242    0.074758166    0.10949662     0.077962763    0.036815118    10648        
      8200   2.3533246      437.71837      0              437.71837      1.5686374      0.027405358    0.036682073    0.031905446    0.039045007    0.039095766    10648        
      8300   2.6193406      487.19735      2.1414896      489.33884      1.7235124      0.096187403    0.10598796     0.048108508    0.060813224    0.20904215     10648        
      8400   2.3052462      428.7758       2.450529       431.22633      1.5292492      0.089493196    0.098408722    0.032076152    0.18612374     0.077026276    10648        
      8500   2.1579941      401.3869       0              401.3869       1.4425903      0.02513066     0.033734502    0.030343227    0.035951503    0.034908777    10648        
      8600   2.2394945      416.54599      0.61498373     417.16097      1.4864478      0.052960001    0.061640332    0.030948307    0.11659433     0.037378359    10648        
      8700   2.3991107      446.23459      0.8336515      447.06824      1.5771501      0.060481148    0.069423734    0.12509254     0.033050971    0.050127695    10648        
      8800   2.2920691      426.32485      0              426.32485      1.5496122      0.026692014    0.036237174    0.03259645     0.038431665    0.037683407    10648        
      8900   2.013929       374.5908       0              374.5908       1.3687947      0.023452968    0.032008817    0.028452824    0.034123817    0.033449809    10648        
      9000   2.0775935      386.43239      0.14759328     386.57998      1.4156418      0.03860197     0.047511927    0.02827162     0.043133748    0.071130411    10648        
      9100   2.24228        417.06407      0              417.06407      1.5289962      0.026112201    0.035755076    0.031352047    0.038078883    0.037834299    10648        
      9200   2.240678       416.7661       0              416.7661       1.5279038      0.026093545    0.035729531    0.031329648    0.038051677    0.037807268    10648        
      9300   2.1734884      404.26885      0.042181537    404.31103      1.482018       0.033830233    0.043175642    0.042769477    0.048077577    0.038679874    10648        
      9400   2.133926       396.91023      0              396.91023      1.446918       0.024850377    0.033835705    0.030818397    0.035489475    0.035199244    10648        
      9500   2.2150402      411.99748      2.1580459      414.15552      1.4925025      0.12364937     0.13275607     0.12841232     0.079087166    0.19076872     10648        
      9600   2.3743996      441.63832      1.4065559      443.04488      1.6075614      0.096090278    0.10603179     0.16513721     0.063612938    0.089345226    10648        
      9700   2.2529161      419.0424       0              419.0424       1.530151       0.026236063    0.03578208     0.033534488    0.036776662    0.037035091    10648        
      9800   2.0543389      382.10704      0              382.10704      1.4033101      0.023923556    0.032815948    0.030463578    0.033624039    0.034360228    10648        
      9900   2.1250523      395.25973      0.023960602    395.28369      1.4553663      0.030968984    0.040255209    0.035812558    0.033941566    0.051011501    10648        
     10000   2.19783        408.79638      0.003905218    408.80029      1.5424521      0.027766394    0.038241568    0.036374647    0.037787949    0.040562108    10648        
     10100   2.181135       405.6911       0              405.6911       1.5302056      0.025400144    0.035783357    0.034237861    0.035992617    0.037119594    10648        
     10200   2.1171048      393.78149      0              393.78149      1.4920717      0.024654488    0.034891609    0.033289454    0.034840562    0.03654481     10648        
     10300   2.0865713      388.10226      0              388.10226      1.4705526      0.024298914    0.034388392    0.032809343    0.034338081    0.03601775     10648        
     10400   2.1495193      399.81059      0              399.81059      1.5165931      0.025031968    0.035465033    0.033906639    0.035518981    0.03696948     10648        
     10500   2.2838255      424.79155      3.880409       428.67195      1.6151305      0.11561627     0.12678956     0.072427344    0.075941249    0.23200007     10648        
     10600   2.1573141      401.26043      0              401.26043      1.5314842      0.025122742    0.035813257    0.034766775    0.03417692     0.038496077    10648        
     10700   1.9691172      366.25579      2.1370496      368.39284      1.3997195      0.090589062    0.10038993     0.23961157     0.027062043    0.034496175    10648        
     10800   2.0753374      386.01276      0.0091560878   386.02192      1.4640041      0.027973429    0.038040594    0.039112003    0.033304754    0.041705024    10648        
     10900   2.2076859      410.62959      0              410.62959      1.5514718      0.02570934     0.03628066     0.036300854    0.033731775    0.038809351    10648        
     11000   2.1939405      408.07294      0              408.07294      1.5356485      0.02554927     0.035910638    0.035762557    0.033265739    0.038703619    10648        
     11100   2.1440942      398.80152      0.98131591     399.78284      1.4969765      0.062771044    0.072808559    0.043987058    0.032068502    0.14237012     10648        
     11200   2.1211394      394.53192      0              394.53192      1.4864944      0.024701473    0.034761186    0.034432632    0.032617111    0.037233815    10648        
     11300   2.1413479      398.2907       1.8601811      400.15088      1.4994344      0.11631791     0.12644488     0.17827235     0.092017218    0.10904508     10648        
     11400   2.2097167      411.00731      0.38884517     411.39615      1.5986322      0.047100413    0.058750915    0.046084424    0.071763337    0.058404984    10648        
     11500   2.2097771      411.01854      0              411.01854      1.5913965      0.025733693    0.037214288    0.036952975    0.034751671    0.039938217    10648        
     11600   1.9835796      368.94581      0              368.94581      1.4258042      0.023099537    0.033341965    0.032646589    0.031353875    0.036025431    10648        
     11700   1.9709434      366.59547      1.46218        368.05765      1.4241795      0.093675276    0.10402686     0.060692121    0.14687711     0.10451137     10648        
     11800   2.1621763      402.16479      0.14946332     402.31426      1.5524531      0.045872072    0.056996317    0.082069216    0.034312974    0.05460676     10648        
     11900   2.1751778      404.58307      0.025306281    404.60837      1.5697661      0.030890233    0.04226793     0.040075655    0.036232429    0.050495706    10648        
     12000   2.0963966      389.92977      0              389.92977      1.5141386      0.024413334    0.035407636    0.034290278    0.032344202    0.039588429    10648        
     12100   2.0468002      380.70484      0.72729658     381.43214      1.4899526      0.070384739    0.081391027    0.079385207    0.088203428    0.076584447    10648        
     12200   2.0469791      380.73811      0              380.73811      1.4916618      0.023837848    0.034882024    0.034299228    0.03097824     0.039368604    10648        
     12300   2.0847556      387.76454      0              387.76454      1.5191901      0.02427777     0.035525764    0.034932213    0.031549936    0.040095143    10648        
     12400   2.1454441      399.0526       0              399.0526       1.5634146      0.02498451     0.03655994     0.03594911     0.032468373    0.041262336    10648        
     12500   2.074829       385.91819      0              385.91819      1.5072842      0.02416217     0.035247349    0.034970963    0.031114528    0.039656557    10648        
     12600   1.8998339      353.3691       0              353.3691       1.404177       0.022124286    0.032836221    0.032798125    0.028350865    0.037359672    10648        
     12700   1.9456788      361.89625      0              361.89625      1.4609054      0.022658167    0.034162795    0.034781663    0.028714933    0.038991788    10648        
     12800   2.1896128      407.26798      1.0094893      408.27747      1.6271601      0.12764784     0.14019958     0.1689218      0.16537707     0.086299862    10648        
     12900   2.1282187      395.84869      0              395.84869      1.5650484      0.024783915    0.036598146    0.037561338    0.030389527    0.041843573    10648        
     13000   2.0206892      375.8482       0              375.8482       1.4856208      0.023531693    0.034740757    0.035552999    0.028773098    0.039896175    10648        
     13100   2.0257193      376.7838       0.05442799     376.83822      1.4774902      0.031506003    0.042466357    0.042735998    0.030898624    0.05376445     10648        
     13200   2.0403169      379.49894      1.4354559      380.93439      1.5122157      0.0825828      0.094185207    0.13721807     0.033353797    0.11198375     10648        
     13300   2.1658484      402.84779      1.0604265      403.90822      1.6119654      0.064725203    0.077198362    0.084581697    0.038921998    0.10809139     10648        
     13400   2.1456208      399.08547      3.1714283      402.2569       1.6053555      0.13550126     0.14805541     0.075030643    0.22505553     0.14408005     10648        
     13500   1.895996       352.65526      1.2383656      353.89363      1.4250892      0.064346468    0.07559212     0.046825528    0.028451896    0.15149893     10648        
     13600   1.8801641      349.71053      1.1669324      350.87746      1.428634       0.080219151    0.091732066    0.10332596     0.10116164     0.0707086      10648        
     13700   2.0386992      379.19804      2.4233529      381.6214       1.5446455      0.075765044    0.088144649    0.081052336    0.026283927    0.15709768     10648        
     13800   2.0644397      383.98578      3.0109806      386.99676      1.5663592      0.094429776    0.10701739     0.037984935    0.18121502     0.10185222     10648        
     13900   1.8494621      343.99995      0              343.99995      1.4177343      0.021537688    0.033153253    0.032577032    0.029645089    0.037237638    10648        
     14000   1.693001       314.89819      0              314.89819      1.2944965      0.019715639    0.030271377    0.029806882    0.027431542    0.033575708    10648        
     14100   1.808152       336.31627      0.35846533     336.67474      1.3993751      0.051495023    0.063162337    0.05847502     0.034362614    0.096649376    10648        
     14200   1.9791401      368.12005      0.35418719     368.47424      1.5271267      0.049249437    0.061912958    0.044155787    0.076031895    0.065551192    10648        
     14300   2.0298838      377.55839      0.067558548    377.62595      1.5767906      0.03374944     0.046983406    0.038049303    0.057186868    0.045714047    10648        
     14400   1.9073861      354.77381      0              354.77381      1.4780523      0.022212234    0.034563771    0.033157521    0.030853028    0.039680763    10648        
     14500   1.7846218      331.93965      0.66289238     332.60254      1.3863771      0.052456298    0.064093675    0.10736822     0.04818199     0.03673082     10648        
     14600   1.9516162      363.00061      0.60473199     363.60534      1.5241325      0.056576181    0.06949021     0.036314699    0.10799826     0.064157667    10648        
     14700   2.0985971      390.33907      0.13395644     390.47303      1.6452301      0.037905087    0.051939296    0.038501871    0.072557884    0.044758132    10648        
     14800   1.9068511      354.67431      0              354.67431      1.5270137      0.022206005    0.035708717    0.034070687    0.031741477    0.041313987    10648        
     14900   1.84096        342.41856      0              342.41856      1.4508559      0.021438678    0.033927791    0.03291897     0.030887894    0.037976509    10648        
     15000   1.8670918      347.27908      0.080320326    347.3594       1.4776521      0.032624807    0.045436226    0.035622865    0.063032276    0.037653536    10648        
     15100   2.0458888      380.53531      0              380.53531      1.6192949      0.023825151    0.037866683    0.036803021    0.034360445    0.042436584    10648        
     15200   2.1265427      395.53694      0              395.53694      1.68345        0.024764396    0.039366929    0.038032294    0.035715175    0.044353318    10648        
     15300   1.8077159      336.23516      0.53703353     336.77219      1.4352496      0.091590236    0.10410154     0.16601689     0.086532609    0.059755123    10648        
     15400   1.8070524      336.11174      1.9503522      338.06209      1.4315945      0.13023411     0.14266767     0.011463145    0.035870253    0.38066961     10648        
     15500   1.9244891      357.95497      1.5552692      359.51024      1.5448619      0.12372289     0.13743758     0.07422918     0.195698       0.14238556     10648        
     15600   1.9680111      366.05007      0.0017913293   366.05186      1.5812749      0.024483624    0.038542983    0.036199644    0.038166892    0.041262413    10648        
     15700   1.7665121      328.57125      0              328.57125      1.4207363      0.020571703    0.033223454    0.032009279    0.031136977    0.036524106    10648        
     15800   1.6997097      316.146        0              316.146        1.3645786      0.019793764    0.031910224    0.030720409    0.029961413    0.035048851    10648        
     15900   1.816673       337.90117      0              337.90117      1.4680226      0.021155846    0.034329229    0.032727124    0.031952549    0.038308014    10648        
     16000   1.8727965      348.34016      0              348.34016      1.5133751      0.021809426    0.035389783    0.033738183    0.032939678    0.039491486    10648        
     16100   1.9289242      358.77991      3.3141014      362.09401      1.5169766      0.10549337     0.11850432     0.1038753      0.034015901    0.21762175     10648        
     16200   1.9073997      354.77634      0              354.77634      1.5015245      0.022212393    0.035112661    0.032349225    0.034880133    0.038108625    10648        
     16300   1.7751584      330.17946      0              330.17946      1.4138757      0.020672393    0.033063021    0.029574515    0.033235053    0.036379493    10648        
     16400   1.7772526      330.56898      0.81647528     331.38546      1.4173938      0.058361475    0.070809986    0.070579031    0.051878907    0.089972021    10648        
     16500   1.9987447      371.76651      7.5110599e-05  371.76658      1.5940501      0.023627609    0.037627809    0.032709309    0.03747245     0.042701668    10648        
     16600   1.9809029      368.44794      0              368.44794      1.57997        0.023068366    0.036947081    0.032594975    0.036678826    0.041567442    10648        
     16700   1.8131441      337.2448       0.091064418    337.33587      1.4628232      0.03356626     0.046659152    0.044811285    0.055039667    0.040126504    10648        
     16800   1.8005124      334.89531      2.0124149      336.90773      1.4541823      0.076588337    0.089626264    0.15156549     0.038029797    0.079283499    10648        
     16900   1.8906928      351.66887      1.7779523      353.44682      1.4986754      0.1140501      0.1270783      0.024108176    0.1583549      0.19877183     10648        
     17000   1.9183618      356.81529      0              356.81529      1.5241161      0.022340051    0.035640958    0.030546629    0.036002497    0.040373746    10648        
     17100   1.8747876      348.71049      1.0765233      349.78701      1.4905961      0.11850647     0.13153096     0.19152355     0.095904917    0.10716442     10648        
     17200   1.7121318      318.45651      0.07213724     318.52865      1.3620112      0.034487176    0.046398938    0.027248726    0.032563751    0.079384338    10648        
     17300   1.759673       327.29919      0.40217962     327.70137      1.380626       0.043021056    0.054814483    0.053205514    0.033955616    0.077282318    10648        
     17400   1.9882234      369.80955      0.072264277    369.88181      1.556506       0.033871805    0.047116573    0.060857824    0.038692276    0.04179962     10648        
     17500   1.9805947      368.39061      0              368.39061      1.5535176      0.023064777    0.036328502    0.031777455    0.035388138    0.041819913    10648        
     17600   1.878019       349.31154      0.36275562     349.67429      1.4558815      0.046950023    0.059125093    0.058227357    0.047394231    0.07175369     10648        
     17700   1.8298962      340.36069      0              340.36069      1.4177983      0.021309835    0.033154749    0.029644012    0.032436181    0.037384056    10648        
     17800   2.0646375      384.02258      0.11501322     384.13759      1.6029162      0.037498396    0.05093858     0.0345257      0.037407268    0.080882771    10648        
     17900   2.107608       392.01509      0.00035792534  392.01545      1.6362069      0.025344369    0.039062638    0.034526584    0.040213716    0.042447615    10648        
     18000   1.8975696      352.94794      0              352.94794      1.4753154      0.022097918    0.034499768    0.030491781    0.034741951    0.038265573    10648        
     18100   1.8591783      345.80717      0.10023613     345.9074       1.4478116      0.049536923    0.061742687    0.047225972    0.03617871     0.10182338     10648        
     18200   1.9309577      359.15814      4.3936201      363.55176      1.50213        0.16293407     0.17557416     0.16849708     0.23881647     0.11940893     10648        
     18300   2.0734996      385.67093      0              385.67093      1.5987085      0.02414669     0.037385276    0.034202963    0.038038064    0.039914801    10648        
     18400   2.0216636      376.02942      0              376.02942      1.5587419      0.023543039    0.03645067     0.033347913    0.037087139    0.038916959    10648        
     18500   1.8059254      335.90213      0.0078701307   335.91         1.3934748      0.024380826    0.035936092    0.029588831    0.032624403    0.045595042    10648        
     18600   1.8596115      345.88773      0.46170671     346.34944      1.4337485      0.045194946    0.057066806    0.031146604    0.10295765     0.037096162    10648        
     18700   2.0450791      380.38471      3.4992861      383.88399      1.5677817      0.093645592    0.10649193     0.03163129     0.041448315    0.24639619     10648        
     18800   2.0608864      383.32488      0.36535078     383.69023      1.5582326      0.045074177    0.057513134    0.033860589    0.098727159    0.039951653    10648        
     18900   1.9111154      355.46746      0              355.46746      1.462597       0.022255663    0.034202353    0.031220833    0.034132783    0.037253442    10648        
     19000   1.8897667      351.4966       1.9520238      353.44862      1.4519566      0.12231956     0.13426604     0.075453763    0.19224211     0.13510224     10648        
     19100   1.921416       357.38338      0.35110924     357.73449      1.4897006      0.046404464    0.058865006    0.057135799    0.077915809    0.041543411    10648        
     19200   1.9487833      362.4737       0              362.4737       1.5202054      0.022694321    0.035549506    0.03230097     0.036507419    0.037840129    10648        
     19300   1.9267926      358.38342      0              358.38342      1.5189284      0.022438231    0.035519644    0.032079362    0.036954876    0.037524695    10648        
     19400   1.8204655      338.60658      0.27027284     338.87685      1.4455285      0.042771693    0.055374893    0.029491897    0.10054371     0.036089073    10648        
     19500   1.7477411      325.07985      0              325.07985      1.3923507      0.020353109    0.032559667    0.029203761    0.033454648    0.035020592    10648        
     19600   1.9122248      355.67381      0              355.67381      1.5329369      0.022268583    0.035847229    0.032789661    0.036053789    0.038698237    10648        
     19700   2.0008284      372.15409      0.077605739    372.23169      1.6064095      0.034483811    0.048748767    0.034197957    0.037504185    0.074544157    10648        
     19800   1.8998827      353.37818      0              353.37818      1.4976107      0.022124855    0.035021138    0.031477833    0.034500077    0.039085503    10648        
     19900   1.8251499      339.47788      0              339.47788      1.4467332      0.021254563    0.033831384    0.030313756    0.033462721    0.037717675    10648        
     20000   1.865133       346.91474      0.60662553     347.52136      1.4810836      0.083236273    0.096150747    0.06501438     0.075012986    0.14842487     10648        
     20100   1.9406246      360.95618      0              360.95618      1.5172288      0.02259931     0.0354799      0.032907319    0.034665535    0.038866845    10648        
     20200   1.9153036      356.24646      1.9347387      358.1812       1.5124642      0.13397823     0.14704227     0.25031379     0.033247925    0.15756509     10648        
     20300   1.8018557      335.14516      0.087463002    335.23262      1.4410271      0.045827714    0.05854237     0.029063099    0.05585707     0.09070694     10648        
     20400   1.6383644      304.73578      1.3216017      306.05738      1.3455793      0.099472889    0.11185945     0.077608978    0.093363381    0.16460598     10648        
     20500   1.8272887      339.87569      0              339.87569      1.4981502      0.02127947     0.035033752    0.031799521    0.035405919    0.037895818    10648        
     20600   1.9276006      358.53371      0              358.53371      1.5826069      0.02244764     0.037008744    0.033785437    0.037175053    0.040065744    10648        
     20700   1.8329494      340.9286       0              340.9286       1.504896       0.021345392    0.035191501    0.032126467    0.035349643    0.038098392    10648        
     20800   1.7401743      323.67243      0              323.67243      1.4287254      0.020264991    0.033410276    0.03050038     0.033560413    0.036170034    10648        
     20900   1.8399682      342.23408      0              342.23408      1.5030627      0.021427128    0.035148631    0.031518144    0.035373155    0.038554593    10648        
     21000   2.083612       387.55183      0              387.55183      1.7020944      0.024264452    0.03980292     0.035691694    0.040057176    0.043659891    10648        
     21100   1.8990664      353.22635      1.7929333      355.01929      1.5437664      0.078660148    0.092645273    0.069635195    0.16332994     0.044970683    10648        
     21200   1.798022       334.43208      0              334.43208      1.4567495      0.020938648    0.03406561     0.030224157    0.034922162    0.037050511    10648        
     21300   1.8179419      338.13719      0              338.13719      1.4728885      0.021170623    0.034443016    0.030559005    0.035309058    0.037460987    10648        
     21400   1.9366633      360.21937      0.66937177     360.88874      1.5690689      0.055079071    0.069218055    0.074350547    0.048336548    0.084967071    10648        
     21500   2.0299854      377.57729      0.23550199     377.81279      1.641898       0.052480846    0.067236145    0.082086289    0.047196445    0.0724257      10648        
     21600   1.779307       330.9511       0.0016682732   330.95277      1.4477729      0.022416864    0.035551856    0.031873897    0.034114412    0.040667258    10648        
     21700   1.7188902      319.71357      0              319.71357      1.3986162      0.020017128    0.032706182    0.030016107    0.032793101    0.035309339    10648        
     21800   1.8516924      344.4148       3.1567031      347.5715       1.5116841      0.1270227      0.14080928     0.12160717     0.072361453    0.22845921     10648        
     21900   1.9166674      356.50014      0.23486072     356.735        1.579073       0.040306082    0.054911868    0.033490412    0.091790288    0.039454904    10648        
     22000   1.8279717      340.00273      0              340.00273      1.5041725      0.021287424    0.035174583    0.031449629    0.035873129    0.038200992    10648        
     22100   1.7810326      331.27207      0              331.27207      1.459994       0.020740801    0.034141483    0.030638111    0.034677156    0.037109183    10648        
     22200   1.8141936      337.44002      0              337.44002      1.4808743      0.021126973    0.034629763    0.031455054    0.034457952    0.037976282    10648        
     22300   1.8500301      344.1056       0              344.1056       1.5101267      0.021544303    0.035313818    0.032076398    0.035138614    0.038726443    10648        
     22400   1.8653767      346.96006      0.26010848     347.22017      1.5255727      0.04864013     0.06259213     0.048500803    0.071239284    0.068036304    10648        
     22500   1.8028543      335.33089      0              335.33089      1.4905647      0.020994922    0.034856369    0.032956416    0.03450917     0.037103521    10648        
     22600   1.7007112      316.33228      0              316.33228      1.4061148      0.019805427    0.032881535    0.031089226    0.032554007    0.035001371    10648        
     22700   1.7522334      325.91541      0.64807284     326.56348      1.4552274      0.11016772     0.12379231     0.13254765     0.052003132    0.18682616     10648        
     22800   1.9336052      359.65057      0.12942132     359.77999      1.6077824      0.03714839     0.052228289    0.05532433     0.048914414    0.052446123    10648        
     22900   1.8603987      346.03415      0.35738716     346.39154      1.5520353      0.043949892    0.058578681    0.070557352    0.035876624    0.069302068    10648        
     23000   1.7217104      320.23814      0              320.23814      1.440064       0.020049971    0.033675425    0.031773842    0.033836393    0.035416042    10648        
     23100   1.7423171      324.07098      0.031456185    324.10244      1.4571051      0.027075568    0.040859552    0.033728677    0.040376203    0.048473776    10648        
     23200   1.8032944      335.41275      0              335.41275      1.50659        0.021000047    0.035231114    0.033313496    0.035368646    0.0370112      10648        
     23300   1.8366753      341.6216       0              341.6216       1.5344785      0.02138878     0.035883279    0.033930164    0.036023357    0.037696316    10648        
     23400   1.7755451      330.2514       0.11811953     330.36951      1.4827695      0.035087995    0.049085179    0.034065078    0.054591051    0.058599408    10648        
     23500   1.5934299      296.37796      2.8077224      299.18568      1.3497187      0.10811696     0.12112359     0.22922817     0.088782926    0.045359676    10648        
     23600   1.6759035      311.71805      0.64594246     312.36399      1.4483957      0.050018447    0.064372174    0.041507997    0.092087598    0.059520928    10648        
     23700   1.8500738      344.11373      0.61395853     344.72769      1.5854688      0.060735586    0.076266443    0.051976899    0.083402146    0.093420284    10648        
     23800   1.7904231      333.0187       3.6105227      336.62923      1.5230963      0.16445479     0.17922174     0.27319787     0.12769172     0.13677564     10648        
     23900   1.6787477      312.24708      0              312.24708      1.4501041      0.019549654    0.033910211    0.032733068    0.034318267    0.034679298    10648        
     24000   1.689441       314.23602      0              314.23602      1.4605806      0.019674181    0.0341552      0.032593868    0.034427694    0.035444038    10648        
     24100   1.9502892      362.75379      0              362.75379      1.686093       0.022711858    0.039428733    0.037626332    0.0397433      0.040916566    10648        
     24200   1.8766368      349.05444      0              349.05444      1.6224179      0.021854147    0.037939712    0.036205379    0.038242399    0.039371357    10648        
     24300   1.7141582      318.83342      0              318.83342      1.4819495      0.019962022    0.034654904    0.033070729    0.034931384    0.035962598    10648        
     24400   1.6961996      315.49312      0.22251767     315.71564      1.4617177      0.037911107    0.052340011    0.07549268     0.043849977    0.037677375    10648        
     24500   1.7617799      327.69106      0              327.69106      1.5208595      0.020516595    0.035564803    0.033285496    0.035970499    0.037438414    10648        
     24600   1.8686957      347.5774       1.5471434      349.12455      1.6097687      0.068000396    0.08388264     0.16325295     0.036229257    0.052165712    10648        
     24700   1.8133637      337.28564      0              337.28564      1.5455785      0.021117308    0.036142848    0.033558228    0.03604029     0.038830026    10648        
     24800   1.6344474      304.00722      0              304.00722      1.3873914      0.01903376     0.032443695    0.030056227    0.032256598    0.035018261    10648        
     24900   1.7038448      316.91513      0              316.91513      1.4529033      0.019841919    0.033975669    0.032456904    0.03371939     0.035750711    10648        
     25000   1.8133641      337.28571      0              337.28571      1.5676826      0.021117312    0.036659746    0.035382362    0.03636049     0.038236388    10648        
     25100   1.7821735      331.48427      0.042260511    331.52653      1.5401135      0.028751982    0.044012948    0.053028466    0.040155184    0.038855193    10648        
     25200   1.7174326      319.44246      1.6975143      321.13997      1.4833832      0.07139891     0.086087187    0.15182909     0.050851945    0.055580526    10648        
     25300   1.7220004      320.29207      0              320.29207      1.4871137      0.020053348    0.034775669    0.03350088     0.03458456     0.036241567    10648        
     25400   1.7330783      322.35256      2.1386829      324.49124      1.4955938      0.081839116    0.096630735    0.047750512    0.20765401     0.034487684    10648        
     25500   1.7391304      323.47826      0.65328422     324.13155      1.5085208      0.07719352     0.092216952    0.11106302     0.084311935    0.081275898    10648        
     25600   1.7408251      323.79347      0              323.79347      1.5029112      0.020272569    0.035145087    0.033661792    0.035490356    0.036283112    10648        
     25700   1.6872452      313.82761      0              313.82761      1.4319677      0.019648611    0.033486097    0.031249661    0.034909574    0.034299056    10648        
     25800   1.6727734      311.13585      0.77472343     311.91057      1.4173042      0.053990652    0.067653768    0.049013585    0.11381035     0.040137373    10648        
     25900   1.8174608      338.0477       0              338.0477       1.5530111      0.02116502     0.036316657    0.033433214    0.03905216     0.036464596    10648        
     26000   1.860455       346.04463      0              346.04463      1.5897494      0.021665704    0.037175771    0.034224117    0.039975985    0.03732721     10648        
     26100   1.6806315      312.59746      0              312.59746      1.4498903      0.019571592    0.03390521     0.030843181    0.036614657    0.034257792    10648        
     26200   1.6139101      300.18728      0              300.18728      1.4003946      0.018794595    0.032747771    0.029807731    0.035600638    0.032834944    10648        
     26300   1.7446766      324.50985      0              324.50985      1.5138611      0.020317421    0.035401148    0.032222892    0.038485167    0.035495384    10648        
     26400   1.7984832      334.51787      0.40965979     334.92753      1.5511263      0.045737316    0.061065878    0.057080105    0.085926255    0.040191274    10648        
     26500   1.7458533      324.72871      0              324.72871      1.5061372      0.020331124    0.035220526    0.031636799    0.038344521    0.035680259    10648        
     26600   1.6964653      315.54255      0              315.54255      1.4584244      0.019755982    0.034104778    0.031695781    0.036378157    0.034240395    10648        
     26700   1.7210971      320.12407      0.023273297    320.14734      1.4811269      0.031988162    0.046581002    0.063368776    0.037687584    0.038686648    10648        
     26800   1.8723905      348.26463      0              348.26463      1.607682       0.021804698    0.037595119    0.035163962    0.039613148    0.038008246    10648        
     26900   1.87102        348.00972      0              348.00972      1.5983728      0.021788737    0.037377425    0.03483313     0.039493329    0.037805815    10648        
     27000   1.643164       305.62851      0              305.62851      1.4037203      0.019135269    0.032825539    0.030591093    0.034683765    0.03320176     10648        
     27100   1.674645       311.48397      0              311.48397      1.4317511      0.019501876    0.033481031    0.031492864    0.035210871    0.033739358    10648        
     27200   1.7880493      332.57718      0              332.57718      1.532542       0.020822513    0.035837993    0.033260637    0.037417373    0.03683597     10648        
     27300   1.7978226      334.395        0              334.395        1.546664       0.020936326    0.036168233    0.03296523     0.037998342    0.037541126    10648        
     27400   1.7142636      318.85302      0              318.85302      1.4724483      0.01996325     0.034432722    0.031104845    0.036200826    0.035992495    10648        
     27500   1.517643       282.28159      0              282.28159      1.3035631      0.017673528    0.030483397    0.027537217    0.032048706    0.031864269    10648        
     27600   1.5048396      279.90017      2.1904126      282.09058      1.2965571      0.084291951    0.097087087    0.19154432     0.061850377    0.037866566    10648        
     27700   1.7080156      317.6909       2.227069       319.91797      1.4830734      0.17951962     0.19431031     0.21742311     0.30752151     0.057986315    10648        
     27800   1.7821506      331.48         0              331.48         1.5456971      0.020753819    0.036145621    0.03348164     0.037162592    0.03779263     10648        
     27900   1.7492623      325.36278      1.6453544      327.00813      1.5135166      0.076427581    0.091449849    0.19667935     0.037937139    0.039733062    10648        
     28000   1.6608474      308.91761      0              308.91761      1.4357682      0.019341198    0.03357497     0.031197347    0.03452843     0.034999132    10648        
     28100   1.664375       309.57376      4.231929       313.80569      1.4193396      0.13416776     0.14797627     0.28450832     0.12428978     0.035130715    10648        
     28200   1.8990145      353.2167       0              353.2167       1.6110301      0.022114745    0.037673411    0.035208601    0.03874195     0.039069683    10648        
     28300   1.8858944      350.77635      0              350.77635      1.5998996      0.021961955    0.037413128    0.034965347    0.038474284    0.038799753    10648        
     28400   1.729147       321.62135      0              321.62135      1.4688232      0.020136573    0.034347951    0.032342581    0.035475784    0.035225487    10648        
     28500   1.7162746      319.22708      0              319.22708      1.4645858      0.019986669    0.03424886     0.032250485    0.035463214    0.035032881    10648        
     28600   1.7700619      329.23151      0              329.23151      1.5104852      0.020613042    0.035322203    0.0332612      0.036574615    0.036130796    10648        
     28700   1.8237625      339.21982      0              339.21982      1.5477733      0.021238406    0.036194172    0.033786082    0.037353457    0.037442977    10648        
     28800   1.7605549      327.46322      0              327.46322      1.4966458      0.02050233     0.034998573    0.032738218    0.036224749    0.036032752    10648        
     28900   1.6182155      300.98809      1.0176154      302.0057       1.3799317      0.057788173    0.071212692    0.03259036     0.036996753    0.14405096     10648        
     29000   1.7067206      317.45003      0              317.45003      1.4598144      0.019875409    0.034137283    0.032434428    0.035191718    0.034785704    10648        
     29100   1.8493307      343.97552      0              343.97552      1.5952476      0.021536158    0.037304343    0.035420224    0.03850509     0.037987715    10648        
     29200   1.7814904      331.35722      3.3314589      334.68868      1.5329457      0.15561027     0.17071157     0.39936009     0.071823846    0.040950772    10648        
     29300   1.6965019      315.54936      0              315.54936      1.4576693      0.019756409    0.03408712     0.03222949     0.03558027     0.034451601    10648        
     29400   1.7065249      317.41363      0.11923763     317.53287      1.4664406      0.033857564    0.048276668    0.073699116    0.037641573    0.033489315    10648        
     29500   1.7259772      321.03177      0              321.03177      1.4994213      0.02009966     0.035063477    0.032641184    0.035922268    0.036626978    10648        
     29600   1.7414129      323.90281      0.41924742     324.32205      1.5149158      0.047777115    0.062923512    0.05049947     0.092835952    0.045435114    10648        
     29700   1.7203384      319.98294      1.9374268      321.92037      1.496674       0.072860611    0.087825849    0.11457101     0.034935946    0.1139706      10648        
     29800   1.6332981      303.79344      0.072367151    303.86581      1.4222282      0.05986597     0.074103935    0.11036752     0.030713979    0.081230304    10648        
     29900   1.612847       299.98955      0              299.98955      1.4048004      0.018782216    0.032850798    0.029847652    0.032452384    0.036252357    10648        
     30000   1.7883601      332.63499      0.15659178     332.79158      1.5604172      0.042972483    0.058636196    0.067307727    0.050475521    0.058125341    10648        
     30100   1.8160332      337.78217      0.004276331    337.78645      1.589928       0.02372109     0.039752641    0.040692842    0.037939927    0.040625153    10648        
     30200   1.6654885      309.78087      0              309.78087      1.4636477      0.019395246    0.034226924    0.031548607    0.034066646    0.037065518    10648        
     30300   1.6324374      303.63336      0              303.63336      1.4267971      0.019010353    0.033365183    0.030762769    0.033623507    0.035709272    10648        
     30400   1.6782308      312.15093      0              312.15093      1.4776154      0.019543635    0.034553553    0.030872722    0.035414322    0.037373615    10648        
     30500   1.6859196      313.58105      0.20148265     313.78254      1.5081885      0.045120689    0.06075601     0.084934801    0.04005017     0.05728306     10648        
     30600   1.7266015      321.14788      0              321.14788      1.5222239      0.02010693     0.035596708    0.030506991    0.036835897    0.039447237    10648        
     30700   1.6892208      314.19506      1.1436731      315.33873      1.4843984      0.064104828    0.079145383    0.031424274    0.035856218    0.17015566     10648        
     30800   1.6098379      299.42985      0              299.42985      1.4077996      0.018747173    0.032920934    0.027683936    0.034361741    0.036717124    10648        
     30900   1.6311744      303.39844      2.1355093      305.53395      1.4399481      0.079387265    0.094064336    0.10765949     0.072262104    0.10227141     10648        
     31000   1.8167662      337.91851      0.83266094     338.75117      1.604772       0.067733704    0.084103841    0.064220405    0.039398943    0.14869217     10648        
     31100   1.7599375      327.34838      0              327.34838      1.5603994      0.020495141    0.036489431    0.029930562    0.038630639    0.040907092    10648        
     31200   1.6267541      302.57627      0              302.57627      1.4423161      0.018944169    0.03372809     0.027665564    0.035707262    0.037811444    10648        
     31300   1.6295099      303.08885      0.00010107763  303.08895      1.456478       0.019406351    0.034489352    0.029153246    0.034722999    0.039591811    10648        
     31400   1.6822483      312.89818      0.26101944     313.1592       1.5031535      0.039081269    0.054641602    0.055514979    0.068344871    0.040064956    10648        
     31500   1.7103711      318.12903      0.043399665    318.17243      1.5253653      0.027977403    0.043729652    0.053045618    0.035549547    0.04259379     10648        
     31600   1.6706554      310.7419       0              310.7419       1.4884189      0.019455416    0.03480619     0.029685969    0.034893641    0.039838961    10648        
     31700   1.534616       285.43857      0              285.43857      1.3601304      0.017871185    0.031806205    0.026769002    0.031903983    0.036745631    10648        
     31800   1.5920586      296.1229       0              296.1229       1.4152074      0.018540127    0.033094164    0.027970906    0.033095676    0.038215909    10648        
     31900   1.7553228      326.49004      3.4741983      329.96424      1.5664772      0.17590683     0.19209699     0.094515943    0.039921084    0.44185393     10648        
     32000   1.6951346      315.29503      2.2960425      317.59107      1.5398964      0.085437153    0.10170664     0.17079984     0.061921205    0.072398879    10648        
     32100   1.582034       294.25833      0.13199314     294.39032      1.4514048      0.032331562    0.047848802    0.033543425    0.030640756    0.079362225    10648        
     32200   1.5752567      292.99774      0              292.99774      1.4405782      0.018344462    0.03368745     0.029393545    0.033121642    0.038547162    10648        
     32300   1.8167247      337.91079      0.0059081136   337.91669      1.6613915      0.024197158    0.041891808    0.034008367    0.038114984    0.053552074    10648        
     32400   1.7880728      332.58154      0              332.58154      1.6265342      0.020822786    0.038035971    0.032961259    0.037211738    0.043934916    10648        
     32500   1.6195538      301.23701      0.62010131     301.85711      1.4725484      0.051492721    0.067067465    0.043028489    0.054550158    0.10362375     10648        
     32600   1.5885503      295.47035      1.8959668      297.36632      1.4522556      0.10170378     0.11716504     0.078166459    0.048694404    0.22463424     10648        
     32700   1.6765037      311.82968      0              311.82968      1.5285335      0.019523521    0.035744257    0.030326827    0.035331236    0.041574708    10648        
     32800   1.765421       328.3683       0.23142258     328.59972      1.6185319      0.045771847    0.063061689    0.090537175    0.047404097    0.051243795    10648        
     32900   1.6764718      311.82375      0              311.82375      1.5288658      0.01952315     0.035752027    0.029553536    0.035944386    0.041758158    10648        
     33000   1.5140904      281.62082      0.063837187    281.68466      1.3844446      0.028152582    0.042895209    0.052034282    0.03261962     0.044031725    10648        
     33100   1.6108976      299.62696      0              299.62696      1.464242       0.018759514    0.034240821    0.028562765    0.034249515    0.039910185    10648        
     33200   1.7338813      322.50193      0              322.50193      1.5776278      0.020191706    0.036892311    0.030545786    0.037707435    0.042423713    10648        
     33300   1.6889307      314.14112      0.47491235     314.61603      1.5355377      0.056595988    0.072835797    0.054166818    0.064118016    0.10022256     10648        
     33400   1.6497649      306.85627      0              306.85627      1.4766212      0.019212138    0.034530304    0.028834442    0.03493856     0.039817909    10648        
     33500   1.6543743      307.71362      0              307.71362      1.4805603      0.019265816    0.034622418    0.028919236    0.034972084    0.039975935    10648        
     33600   1.6647479      309.6431       0              309.6431       1.5031979      0.019386621    0.035151792    0.029215095    0.035797262    0.040443018    10648        
     33700   1.6781608      312.13791      0              312.13791      1.5153092      0.019542819    0.035435011    0.029450482    0.036085683    0.040768869    10648        
     33800   1.6458686      306.13156      0.034243422    306.1658       1.4884362      0.035502442    0.051142271    0.029783913    0.072937617    0.050705282    10648        
     33900   1.5496914      288.24261      0              288.24261      1.4079551      0.018046745    0.03292457     0.027065221    0.0334902      0.038218289    10648        
     34000   1.5933193      296.35739      0.9455777      297.30297      1.4525344      0.057631088    0.073043323    0.03267878     0.034962913    0.15148827     10648        
     34100   1.7385645      323.373        1.2861396      324.65914      1.5926972      0.068396113    0.085394574    0.031612321    0.055546279    0.16902512     10648        
     34200   1.7059654      317.30957      0              317.30957      1.5592472      0.019866615    0.036462485    0.030508182    0.037870064    0.04100921     10648        
     34300   1.5631803      290.75153      0              290.75153      1.4124528      0.018203827    0.033029747    0.028965745    0.033521226    0.036602269    10648        
     34400   1.5734762      292.66657      0.84235462     293.50892      1.4241348      0.054411123    0.069390324    0.08046657     0.03665892     0.091045481    10648        
     34500   1.6584643      308.47436      0              308.47436      1.4846069      0.019313446    0.034717047    0.030891848    0.035164592    0.038094701    10648        
     34600   1.702917       316.74256      0              316.74256      1.5243996      0.019831114    0.035647586    0.031719858    0.036107127    0.039115773    10648        
     34700   1.6991569      316.04318      0              316.04318      1.5210337      0.019787327    0.035568875    0.031649819    0.036027401    0.039029404    10648        
     34800   1.6116697      299.77056      0.00095065728  299.77151      1.4346599      0.021176482    0.035957029    0.036907549    0.033412858    0.03755068     10648        
     34900   1.5445129      287.2794       0.12695534     287.40635      1.3740673      0.031928503    0.046074179    0.028421718    0.039259897    0.070540923    10648        
     35000   1.7292041      321.63197      0.69652764     322.32849      1.5366828      0.074396604    0.090194191    0.03253756     0.085376472    0.15266854     10648        
     35100   1.7831354      331.66318      0.12124804     331.78443      1.6004481      0.035780691    0.052441358    0.035944385    0.040695114    0.080684576    10648        
     35200   1.6673976      310.13596      0              310.13596      1.4965052      0.019417478    0.034995284    0.0312639      0.034809979    0.038911974    10648        
     35300   1.6336523      303.85932      0              303.85932      1.4504461      0.0190245      0.033918207    0.030008694    0.033152601    0.038593326    10648        
     35400   1.6781723      312.14006      0              312.14006      1.4889064      0.019542954    0.034817589    0.03079505     0.033766579    0.039891137    10648        
     35500   1.6852504      313.45657      2.0276765      315.48425      1.5118934      0.095900477    0.11163023     0.13476173     0.15637823     0.04375073     10648        
     35600   1.6786599      312.23073      0              312.23073      1.5097675      0.019548631    0.03530542     0.032455681    0.032672574    0.040788005    10648        
     35700   1.6428216      305.56481      3.3012547      308.86606      1.4839399      0.17768119     0.19325136     0.10413235     0.24658748     0.22903426     10648        
     35800   1.6213203      301.56557      0              301.56557      1.4871104      0.01888089     0.034775591    0.032178671    0.032728291    0.039419811    10648        
     35900   1.6711289      310.82998      2.8713786      313.70136      1.5136393      0.10469061     0.12062564     0.064325214    0.22588562     0.071666085    10648        
     36000   1.7375366      323.18181      0              323.18181      1.5710324      0.020234273    0.036738078    0.033327468    0.035364327    0.041522439    10648        
     36100   1.6409243      305.21191      2.5743334      307.78624      1.4894785      0.080636521    0.096358302    0.031693219    0.18229069     0.075091       10648        
     36200   1.5313283      284.82706      0.016285977    284.84334      1.3989938      0.023258194    0.038140308    0.029674801    0.035181376    0.049564748    10648        
     36300   1.6301974      303.21672      1.3873733      304.60409      1.4823397      0.068641434    0.084321195    0.097224736    0.082754407    0.072984442    10648        
     36400   1.8005855      334.90891      1.6064348      336.51534      1.6325246      0.074198296    0.091405848    0.042159936    0.034697314    0.19736029     10648        
     36500   1.6914727      314.61391      0              314.61391      1.5508471      0.019697841    0.036266053    0.032817523    0.036715641    0.039264996    10648        
     36600   1.5866885      295.12406      3.5856783      298.70974      1.4689773      0.11931988     0.13519384     0.082877665    0.181433       0.14127086     10648        
     36700   1.5936202      296.41336      2.6910005      299.10436      1.4735024      0.086244644    0.1021437      0.10375913     0.1408129      0.06185908     10648        
     36800   1.6790853      312.30986      1.7297931      314.03966      1.5400709      0.11395474     0.13041521     0.12722138     0.081626692    0.18239756     10648        
     36900   1.830876       340.54294      2.0633159      342.60625      1.667033       0.13383391     0.15149569     0.13394399     0.30526414     0.015278936    10648        
     37000   1.7113234      318.30616      0              318.30616      1.546977       0.019929011    0.036175552    0.032091299    0.038146179    0.038289178    10648        
     37100   1.5680568      291.65857      0              291.65857      1.417469       0.018260617    0.033147049    0.029404717    0.034952701    0.035083729    10648        
     37200   1.6203799      301.39065      0.23670137     301.62735      1.4752153      0.050858809    0.066486299    0.042573656    0.076898214    0.079987027    10648        
     37300   1.7489449      325.30376      0              325.30376      1.5822683      0.020367127    0.037000827    0.03294457     0.038532837    0.039525075    10648        
     37400   1.6953505      315.33519      0              315.33519      1.5337815      0.019743       0.035866979    0.031935021    0.037352042    0.038313874    10648        
     37500   1.4718931      273.77211      0              273.77211      1.329959       0.017140753    0.031100656    0.028233762    0.031762845    0.033305362    10648        
     37600   1.5319611      284.94477      4.7316268e-05  284.94481      1.3920661      0.018107274    0.032820016    0.029770556    0.034015004    0.034674487    10648        
     37700   1.6525428      307.37295      0.060530055    307.43348      1.5033169      0.02805341     0.043963496    0.051722506    0.038161128    0.042006852    10648        
     37800   1.7284892      321.49898      0.58692857     322.08591      1.5519439      0.045772288    0.061935076    0.054855629    0.086038226    0.044911372    10648        
     37900   1.6705866      310.7291       0              310.7291       1.4999711      0.019454615    0.035076334    0.030541893    0.036687863    0.037999244    10648        
     38000   1.5198356      282.68942      0              282.68942      1.3646162      0.017699062    0.031911103    0.027785843    0.033377211    0.034570254    10648        
     38100   1.5630991      290.73642      0              290.73642      1.4034612      0.018202882    0.03281948     0.028576792    0.034327323    0.035554327    10648        
     38200   1.7995114      334.70912      0.76085169     335.46997      1.6008697      0.056024536    0.072504357    0.030187306    0.042933558    0.14439221     10648        
     38300   1.728525       321.50565      1.652567       323.15822      1.5378231      0.067932255    0.083764416    0.16525303     0.034977437    0.051062782    10648        
     38400   1.6132461      300.06378      1.012452       301.07623      1.4331177      0.074132204    0.088858329    0.058154524    0.14930577     0.059114692    10648        
     38500   1.6251395      302.27595      1.1370119      303.41296      1.4496268      0.062724805    0.077698488    0.13673073     0.061712767    0.034651971    10648        
     38600   1.8302218      340.42125      0              340.42125      1.6399622      0.021313627    0.038349979    0.034121991    0.040484331    0.040443615    10648        
     38700   1.8087502      336.42753      1.1280847      337.55562      1.6268797      0.10913675     0.12611722     0.095965219    0.19779034     0.084596104    10648        
     38800   1.6581245      308.41116      0.38058132     308.79175      1.4862813      0.073083338    0.088530051    0.11229084     0.030021703    0.12327761     10648        
     38900   1.6295892      303.10359      0.46974521     303.57333      1.4822091      0.04516207     0.060845861    0.052377965    0.097356195    0.032803424    10648        
     39000   1.6518502      307.24414      0.4401156      307.68425      1.5158609      0.046130164    0.062341654    0.032023052    0.033590399    0.12141151     10648        
     39100   1.6835912      313.14797      2.9010268      316.049        1.5363634      0.11666465     0.13298594     0.16430872     0.041321023    0.19332809     10648        
     39200   1.6562878      308.06954      0              308.06954      1.4944631      0.0192881      0.034947532    0.031975529    0.037997179    0.034869888    10648        
     39300   1.5446908      287.3125       0              287.3125       1.3914231      0.017988511    0.032537975    0.029963017    0.035470008    0.032180899    10648        
     39400   1.6082818      299.14042      0              299.14042      1.4526269      0.018729052    0.033969206    0.031849775    0.036418859    0.033638984    10648        
     39500   1.7776294      330.63907      0              330.63907      1.6182076      0.020701169    0.037841256    0.035356928    0.040749346    0.037417495    10648        
     39600   1.7001839      316.23421      0.61035129     316.84456      1.5495349      0.058269626    0.074705706    0.13597104     0.051912796    0.036233278    10648        
     39700   1.601274       297.83696      0              297.83696      1.4679221      0.018647443    0.034326879    0.031969544    0.036899398    0.034111695    10648        
     39800   1.6060213      298.71997      0              298.71997      1.4722741      0.018702728    0.034428649    0.032064325    0.037008795    0.034212827    10648        
     39900   1.6666973      310.0057       0              310.0057       1.5173171      0.019409323    0.035481964    0.033031398    0.037168324    0.036246171    10648        
     40000   1.6854533      313.49432      0              313.49432      1.5353402      0.019627743    0.035903429    0.033390781    0.037621728    0.03669778     10648        
     40100   1.5675392      291.56229      0              291.56229      1.427928       0.018254589    0.033391629    0.031054766    0.034989716    0.034130407    10648        
     40200   1.5137005      281.5483       0.44463322     281.99293      1.3798347      0.043195905    0.057835271    0.06351187     0.075918801    0.034075142    10648        
     40300   1.6786579      312.23037      0.15878899     312.38916      1.5299553      0.036414482    0.052643378    0.075892535    0.037504566    0.044533032    10648        
     40400   1.7653027      328.3463       0              328.3463       1.5909773      0.02055762     0.037204484    0.034449107    0.039302552    0.037861794    10648        
     40500   1.636904       304.46414      0.46077645     304.92492      1.4778849      0.053706147    0.069203635    0.043504623    0.1210647      0.04304158     10648        
     40600   1.5351051      285.52956      0.54561376     286.07517      1.4001265      0.058689497    0.073554116    0.086869424    0.0877119      0.046081025    10648        
     40700   1.6832321      313.08116      0              313.08116      1.5404343      0.019601876    0.036022553    0.033459542    0.037460217    0.037147899    10648        
     40800   1.8427056      342.74325      0              342.74325      1.6872637      0.021459006    0.039456109    0.036619227    0.040773485    0.040975615    10648        
     40900   1.6844242      313.30291      0              313.30291      1.5423341      0.019615759    0.03606698     0.033473775    0.037271198    0.037455966    10648        
     41000   1.5720351      292.39853      0              292.39853      1.4391633      0.018306946    0.033654364    0.03122328     0.034756608    0.034983205    10648        
     41100   1.5951571      296.69921      0              296.69921      1.460331       0.018576209    0.034149362    0.031682521    0.035267818    0.035497748    10648        
     41200   1.7378945      323.24837      0.20950126     323.45788      1.5913249      0.060353656    0.077327828    0.040370565    0.041293567    0.15031935     10648        
     41300   1.739004       323.45475      0              323.45475      1.605101       0.020251362    0.037534762    0.035594754    0.037654119    0.039355413    10648        
     41400   1.4778211      274.87473      0.0031111544   274.87784      1.3769518      0.019216326    0.034206106    0.031224972    0.036766535    0.03462681     10648        
     41500   1.5199639      282.71328      0.20815184     282.92143      1.4172366      0.035664691    0.051105749    0.064766059    0.041650126    0.046901062    10648        
     41600   1.6535542      307.56109      0.0037885169   307.56488      1.5425618      0.021480087    0.038296123    0.04060019     0.03569787     0.038590309    10648        
     41700   1.6617152      309.07903      0.75330741     309.83234      1.5532402      0.092699071    0.10966978     0.030513786    0.23039658     0.068098984    10648        
     41800   1.5561983      289.45289      0              289.45289      1.455277       0.01812252     0.034031177    0.032445473    0.034466174    0.035181885    10648        
     41900   1.4294639      265.88028      0.2359554      266.11624      1.3301708      0.04424696     0.058705919    0.065797467    0.062329926    0.047990364    10648        
     42000   1.4831378      275.86364      0.65085111     276.51449      1.3821786      0.058849732    0.073899823    0.10949194     0.04404051     0.068167018    10648        
     42100   1.6669848      310.05918      0              310.05918      1.5782743      0.019412671    0.036907429    0.035527545    0.036741704    0.038453039    10648        
     42200   1.6399229      305.02565      2.2804961      307.30615      1.5492255      0.11850458     0.13563519     0.086396535    0.18301493     0.13749409     10648        
     42300   1.5320576      284.96272      0.43642469     285.39915      1.4360276      0.045166724    0.060906368    0.038637038    0.070752881    0.073329184    10648        
     42400   1.5206238      282.83604      0              282.83604      1.4243487      0.017708242    0.03330793     0.031525711    0.033000117    0.035397961    10648        
     42500   1.7057815      317.27536      3.7163507      320.99171      1.5976143      0.11082813     0.12832335     0.041943683    0.25039914     0.092627227    10648        
     42600   1.7311813      321.99973      0.030335623    322.03007      1.6281737      0.026937652    0.044851697    0.044376695    0.051874812    0.038303585    10648        
     42700   1.6284315      302.88826      0              302.88826      1.5217043      0.018963703    0.035584558    0.034023422    0.035398861    0.037331393    10648        
     42800   1.5829327      294.42548      1.2367781      295.66226      1.4723527      0.062497307    0.078493943    0.13866561     0.053385342    0.043430878    10648        
     42900   1.6429277      305.58456      0              305.58456      1.4895375      0.019132517    0.034832348    0.033901764    0.034595147    0.036000133    10648        
     43000   1.7299981      321.77966      0              321.77966      1.5742613      0.020146485    0.036813587    0.03542643     0.037162252    0.037852078    10648        
     43100   1.789422       332.83249      0.50449392     333.33699      1.6301956      0.060522862    0.077805956    0.061068119    0.10527645     0.0670733      10648        
     43200   1.5967995      297.0047       0.07601135     297.08071      1.4478161      0.029762512    0.045023884    0.056943051    0.03470531     0.04342329     10648        
[...]
   1789500   1.5501699      288.33161      11.852296      300.18391      1.6563619      1.4827226      1.5535511      2.985936       0.51631057     1.1584069      3109.0991    
   1789600   1.4130271      262.82304      14.421636      277.24468      1.5074276      2.0804717      2.1448421      2.8314422      1.8203109      1.7827734      3109.0991    
   1789700   1.4215624      264.4106       4.270297       268.6809       1.4713372      0.66463163     0.72577128     0.35063182     1.0910203      0.73566171     3109.0991    
   1789800   1.3776631      256.24534      9.3020457      265.54738      1.4739733      1.6387738      1.7018754      2.1152055      1.221489       1.7689317      3109.0991    
   1789900   1.5069363      280.29014      4.5527686      284.84291      1.5577531      0.89502268     0.9596782      0.8322275      1.4082253      0.63858178     3109.0991    
   1790000   1.5720917      292.40905      2.1223595      294.53141      1.6678029      0.53716298     0.60803352     0.29549459     0.8369721      0.69163387     3109.0991    
   1790100   1.4745427      274.26495      6.19315        280.4581       1.5267263      1.0328909      1.0963535      1.0172445      0.86006084     1.4117552      3109.0991    
   1790200   1.3574237      252.4808       9.9363903      262.41719      1.4019913      1.3279471      1.3860911      1.2051662      1.5290892      1.4240177      3109.0991    
   1790300   1.5007827      279.14559      2.0910944      281.23668      1.4917166      0.40713605     0.46674829     0.67164999     0.37100267     0.35759223     3109.0991    
   1790400   1.5870618      295.19349      4.4613707      299.65486      1.5907829      1.0372816      1.1013867      0.52995999     2.1476839      0.62651633     3109.0991    
   1790500   1.5849996      294.80993      2.5839684      297.3939       1.5376247      0.55986605     0.61979614     0.54551269     0.68283818     0.63103757     3109.0991    
   1790600   1.3745335      255.66324      4.468191       260.13143      1.3269265      0.62353791     0.67498771     0.29207754     0.68195217     1.0509334      3109.0991    
   1790700   1.4463839      269.02741      6.1335716      275.16098      1.4217782      1.1113362      1.1675168      1.2122593      0.3751526      1.9151385      3109.0991    
   1790800   1.62336        301.94496      8.5323977      310.47736      1.5373168      0.87411646     0.93249197     0.60890149     1.1642502      1.0243243      3109.0991    
   1790900   1.5780628      293.51969      3.8562112      297.3759       1.5525608      0.55403984     0.61544279     0.41613917     0.95800207     0.47218711     3109.0991    
   1791000   1.429512       265.88923      4.8732244      270.76245      1.4361366      0.85669029     0.91469376     0.66189332     0.71448271     1.3677052      3109.0991    
   1791100   1.3378269      248.8358       5.943697       254.7795       1.3747881      0.45934264     0.51608954     0.13790313     0.65431173     0.75605375     3109.0991    
   1791200   1.5029132      279.54185      4.0505167      283.59237      1.595227       0.89934552     0.96716269     0.81641962     1.2506898      0.83437866     3109.0991    
   1791300   1.5150431      281.79802      2.0513316      283.84935      1.6152188      0.35760764     0.42654212     0.65014857     0.27221699     0.35726081     3109.0991    
   1791400   1.4392763      267.7054       2.0750963      269.7805       1.4693846      0.53556165     0.59583844     0.81428075     0.3491638      0.62407076     3109.0991    
   1791500   1.3768069      256.08608      3.8765289      259.96261      1.4407656      0.67310543     0.73358165     0.68920417     0.67496003     0.83658076     3109.0991    
   1791600   1.4581966      271.22458      11.276009      282.50058      1.5164774      1.6062848      1.6695785      1.9030952      1.0194257      2.0862146      3109.0991    
   1791700   1.5110495      281.05521      11.696825      292.75203      1.6224447      1.1361678      1.2058403      0.54691511     0.93902859     2.1315771      3109.0991    
   1791800   1.4409383      268.01451      4.4395902      272.4541       1.5141372      0.7124901      0.77628473     0.50063195     0.91212854     0.91609371     3109.0991    
   1791900   1.3846169      257.53874      6.7132365      264.25198      1.3755242      0.98412261     1.0390623      0.97646699     0.99546424     1.1452558      3109.0991    
   1792000   1.5166721      282.10102      0.98906305     283.09008      1.4940166      0.437273       0.49643573     0.25390115     0.80612199     0.42928405     3109.0991    
   1792100   1.636654       304.41765      7.0766509      311.4943       1.5814665      1.1545936      1.2159748      0.61745333     1.9484624      1.0820086      3109.0991    
   1792200   1.5839441      294.61361      5.2188487      299.83246      1.5187656      1.158165       1.2166268      1.2303658      1.0457615      1.3737532      3109.0991    
   1792300   1.4450777      268.78445      3.7298978      272.51435      1.4032897      0.72103188     0.77578392     1.0232383      0.39714218     0.90697128     3109.0991    
   1792400   1.4893575      277.0205       4.806004       281.8265       1.4693679      0.91965882     0.97793689     1.4155396      0.5948719      0.92339913     3109.0991    
   1792500   1.6887233      314.10254      5.3662807      319.46882      1.6700651      1.0300209      1.096421       1.1235816      0.8864311      1.2792502      3109.0991    
   1792600   1.4654874      272.58066      13.919489      286.50015      1.5046655      1.2510111      1.3130681      1.9438444      0.68498581     1.310374       3109.0991    
   1792700   1.3911133      258.74707      8.4402373      267.18731      1.424234       1.1762794      1.2348611      1.2174368      1.3880416      1.0991047      3109.0991    
   1792800   1.4437809      268.54325      4.0003636      272.54361      1.4855855      0.46540407     0.52679869     0.41361503     1.0113776      0.1554034      3109.0991    
   1792900   1.5381177      286.08989      16.849205      302.93909      1.5681259      1.5741489      1.6383915      1.0139853      2.9291458      0.97204352     3109.0991    
   1793000   1.6128049      299.98171      9.4541688      309.43588      1.612956       1.0679339      1.1327882      1.0538757      1.821356       0.5231328      3109.0991    
   1793100   1.4570514      271.01157      3.2076539      274.21922      1.4099095      0.37436481     0.42916947     0.27325078     0.38901776     0.62523986     3109.0991    
   1793200   1.466757       272.8168       3.1436259      275.96043      1.4098716      0.55794366     0.61235819     0.71079596     0.63414361     0.49213499     3109.0991    
   1793300   1.649892       306.87991      3.5405998      310.42051      1.5513937      0.57370273     0.63214745     0.83207838     0.33176731     0.73259665     3109.0991    
   1793400   1.6723637      311.05965      4.2262734      315.28593      1.5808987      0.6932787      0.75319016     0.53791904     0.93604768     0.78560375     3109.0991    
   1793500   1.5507436      288.43832      3.3037702      291.74209      1.4806831      0.63244533     0.68918134     0.58685243     0.60313539     0.87755621     3109.0991    
   1793600   1.4425546      268.31516      12.846766      281.16193      1.3766955      1.626205       1.6789278      1.889356       1.0223767      2.1250507      3109.0991    
   1793700   1.6112271      299.68825      8.530713       308.21896      1.5959719      1.165185       1.228742       0.35901902     1.3845236      1.9426833      3109.0991    
   1793800   1.5830435      294.44609      7.6743043      302.12039      1.6392685      0.99410253     1.062251       1.0592884      0.8804148      1.2470499      3109.0991    
   1793900   1.4301998      266.01717      10.806094      276.82326      1.459015       1.3116536      1.3714619      1.2715059      1.5023853      1.3404946      3109.0991    
   1794000   1.3604057      253.03545      8.8480678      261.88352      1.4186745      1.5404515      1.5998126      1.3907754      1.7912503      1.6174122      3109.0991    
   1794100   1.4782278      274.95037      2.6122629      277.56263      1.53775        0.67439456     0.73859306     1.2101226      0.28152289     0.72413374     3109.0991    
   1794200   1.5460132      287.55846      5.2714941      292.82995      1.6134376      1.1677615      1.2353182      1.0397314      1.6909848      0.9752383      3109.0991    
   1794300   1.393856       259.25723      9.0321452      268.28937      1.4263374      1.1436901      1.2023309      2.0015575      1.1839218      0.42151335     3109.0991    
   1794400   1.2990987      241.63236      3.6434314      245.27579      1.3575205      0.53636811     0.59327668     1.0241887      0.34697848     0.40866288     3109.0991    
   1794500   1.4063198      261.57549      3.4326607      265.00815      1.4843534      0.56812498     0.63091498     0.57808738     0.90366017     0.41099738     3109.0991    
   1794600   1.5067194      280.24981      4.3369509      284.58676      1.5586968      0.6046605      0.66940025     1.1039339      0.34980467     0.55446219     3109.0991    
   1794700   1.5134966      281.51036      8.7764525      290.28682      1.509798       1.3325365      1.3930897      0.94336879     1.145507       2.0903934      3109.0991    
   1794800   1.3891781      258.38712      3.7534129      262.14053      1.4077696      0.67362348     0.73096374     0.74543178     0.55211485     0.89534458     3109.0991    
   1794900   1.294515       240.7798       1.766168       242.54596      1.3409504      0.46539427     0.52115859     0.27511436     0.8481726      0.44018881     3109.0991    
   1795000   1.4696782      273.36014      17.939525      291.29966      1.498243       1.6244941      1.6858696      1.1393186      2.2356412      1.682649       3109.0991    
   1795100   1.540417       286.51757      9.3547423      295.87231      1.5901456      1.1488737      1.2147881      1.4229123      1.7861003      0.43535174     3109.0991    
   1795200   1.4980272      278.63305      2.1849394      280.81799      1.4979702      0.3842597      0.44448268     0.34148467     0.77839273     0.21357065     3109.0991    
   1795300   1.4119049      262.61431      5.0008978      267.61521      1.4118786      0.73640753     0.79317045     0.64452684     1.0258168      0.7091677      3109.0991    
   1795400   1.5427626      286.95385      4.4713919      291.42524      1.4974475      0.7935006      0.85189754     1.3434999      0.72753942     0.48465331     3109.0991    
   1795500   1.6351619      304.14011      13.142358      317.28247      1.6488892      1.1532259      1.2200663      1.4523782      0.84356088     1.3642598      3109.0991    
   1795600   1.6327332      303.68837      13.618204      317.30657      1.557054       1.730195       1.7897774      0.73806276     2.8527259      1.7785435      3109.0991    
   1795700   1.6326363      303.67035      6.9781383      310.64848      1.5014994      1.0294321      1.0845691      1.502553       0.80736677     0.94378762     3109.0991    
   1795800   1.626865       302.59689      1.1718777      303.76877      1.4968682      0.33065347     0.38564976     0.3092683      0.4732076      0.37447339     3109.0991    
   1795900   1.586192       295.03171      11.246641      306.27835      1.4713059      1.7048217      1.7593929      2.1554494      1.1400116      1.9827178      3109.0991    
   1796000   1.6237449      302.01655      13.019595      315.03614      1.5132768      1.402491       1.4589259      0.84701494     1.8462659      1.6834967      3109.0991    
   1796100   1.654368       307.71246      8.0528444      315.7653       1.5699509      0.9554599      1.0152123      1.0241835      0.86229089     1.1591625      3109.0991    
   1796200   1.5544679      289.13102      8.3924403      297.52346      1.4728022      1.2118897      1.2678461      0.59559662     1.7190821      1.4888594      3109.0991    
   1796300   1.4584344      271.2688       3.8526642      275.12147      1.3846549      0.67257619     0.7253031      1.2137328      0.5225633      0.43961317     3109.0991    
   1796400   1.5957693      296.81309      7.2602466      304.07334      1.4886964      1.3138922      1.3694742      1.384372       1.0457154      1.6783353      3109.0991    
   1796500   1.7103263      318.12068      5.0812777      323.20196      1.6105404      1.0574831      1.1182545      1.6694187      0.61235906     1.0729856      3109.0991    
   1796600   1.6017779      297.93068      1.236535       299.16722      1.5502461      0.48699747     0.54726922     0.50920756     0.56796343     0.56463666     3109.0991    
   1796700   1.482533       275.75115      4.5850263      280.33617      1.4650618      0.91133169     0.96953707     0.80633087     0.94940596     1.1528744      3109.0991    
   1796800   1.5419855      286.8093       1.0843223      287.89362      1.4792654      0.37594851     0.43292029     0.27093669     0.55861457     0.46920959     3109.0991    
   1796900   1.6455979      306.08122      2.6102631      308.69148      1.5999244      0.5596722      0.62217488     0.62093319     1.0182938      0.22729764     3109.0991    
   1797000   1.7556175      326.54485      2.3204021      328.86525      1.7286461      0.3578572      0.42628099     0.69954737     0.19991246     0.37938313     3109.0991    
   1797100   1.6152428      300.43516      1.6355014      302.07066      1.5054698      0.64387042     0.70001912     0.80369047     0.77745601     0.51891089     3109.0991    
   1797200   1.451741       270.02383      6.4762976      276.50013      1.4510507      1.0049617      1.063273       0.50799738     1.6675458      1.0142759      3109.0991    
   1797300   1.5212378      282.95023      3.8335069      286.78374      1.5167589      0.79079346     0.85159547     0.57483009     1.2018388      0.77811748     3109.0991    
   1797400   1.541168       286.65725      2.5868259      289.24407      1.594306       0.49170035     0.55791803     0.60352276     0.82826        0.24197134     3109.0991    
   1797500   1.4308018      266.12913      5.5883952      271.71753      1.5257742      0.88213677     0.94726765     0.92996054     0.95408765     0.95775477     3109.0991    
   1797600   1.2579461      233.97798      11.081868      245.05984      1.3538043      1.1271312      1.1853835      0.47467874     1.2871308      1.7943409      3109.0991    
   1797700   1.4213315      264.36765      2.8184187      267.18607      1.4517026      0.5428172      0.60239357     0.85973085     0.64298285     0.30446702     3109.0991    
   1797800   1.4952289      278.11258      7.2748024      285.38738      1.5445897      0.73742472     0.80149294     0.73749641     1.2043086      0.46267386     3109.0991    
   1797900   1.5066996      280.24613      11.250766      291.4969       1.5119492      1.5044953      1.5654919      1.1286031      1.9892895      1.5785831      3109.0991    
   1798000   1.529127       284.41763      7.1199608      291.53759      1.4756763      0.91802813     0.97522529     0.43825879     1.7456707      0.74174642     3109.0991    
   1798100   1.4702341      273.46355      5.414566       278.87811      1.4542864      0.97235023     1.0301831      0.80875336     1.4256305      0.85616563     3109.0991    
   1798200   1.5424391      286.89367      4.1949792      291.08865      1.5399014      0.66217885     0.72398872     0.59786399     1.1525652      0.42153694     3109.0991    
   1798300   1.686057       313.6066       5.2123471      318.81895      1.6212691      0.79793053     0.86052903     1.0375895      0.86009901     0.68389855     3109.0991    
   1798400   1.5734037      292.65309      12.11736       304.77045      1.4770214      1.8590584      1.9145974      1.2535235      2.5862047      1.9040641      3109.0991    
   1798500   1.4055852      261.43885      3.8528364      265.29169      1.4069681      0.64103107     0.69765278     1.1957222      0.6031707      0.29406547     3109.0991    
   1798600   1.5261462      283.86319      3.7037508      287.56694      1.4809913      0.66878099     0.7265227      0.66718551     1.1332777      0.37910493     3109.0991    
   1798700   1.680464       312.56631      13.239952      325.80627      1.5330506      1.3644693      1.4202257      1.0623557      1.2825398      1.9157816      3109.0991    
   1798800   1.6448279      305.938        9.8165919      315.75459      1.5277176      1.2276987      1.2844492      1.3087453      0.85022933     1.6943729      3109.0991    
   1798900   1.605088       298.54637      3.2247998      301.77117      1.5065917      0.70339233     0.76003588     0.71979579     1.0434531      0.51685873     3109.0991    
   1799000   1.4819903      275.6502       7.3036639      282.95386      1.4572803      1.0429848      1.1005887      0.56485251     1.268914       1.4679995      3109.0991    
   1799100   1.5555904      289.33981      7.140625       296.48043      1.4831906      0.99339844     1.050142       0.71634018     1.0222514      1.4118344      3109.0991    
   1799200   1.6912539      314.57323      2.7493394      317.32257      1.6393797      0.86250756     0.92634922     1.2340127      0.96751921     0.57751574     3109.0991    
   1799300   1.5023812      279.4429       14.371105      293.814        1.55284        2.0492895      2.1137332      2.1784027      2.9114271      1.2513697      3109.0991    
   1799400   1.3652539      253.93723      7.0487486      260.98598      1.4162447      1.3908101      1.4497833      2.2828237      1.2207468      0.84577952     3109.0991    
   1799500   1.4453984      268.84411      7.9359607      276.78007      1.4419754      1.0823248      1.1401623      0.93096533     1.6257712      0.86375025     3109.0991    
   1799600   1.5166058      282.08869      4.914279       287.00296      1.5275477      0.9251999      0.9870507      1.196678       0.67333194     1.0911422      3109.0991    
   1799700   1.5098936      280.84022      2.9688973      283.80911      1.5446181      0.60462692     0.66811254     0.87001761     0.63802063     0.49629939     3109.0991    
   1799800   1.4307515      266.11977      2.4853302      268.6051       1.4638567      0.82677252     0.88694658     0.90268427     0.38678193     1.3713735      3109.0991    
   1799900   1.2413406      230.88935      0.9069642      231.79631      1.2738722      0.32488762     0.37740056     0.37055415     0.32535909     0.43628844     3109.0991    
   1800000   1.308414       243.36501      5.1807182      248.54573      1.38694        0.91261145     0.98130155     0.84174376     1.0112721      1.0908888      2665.6639    
Loop time of 3046.85 on 4 procs for 100000 steps with 125 atoms

Performance: 283.572 tau/day, 32.821 timesteps/s, 4.103 katom-step/s
98.1% CPU use with 4 MPI tasks x 1 OpenMP threads

MPI task timing breakdown:
Section |  min time  |  avg time  |  max time  |%varavg| %total
---------------------------------------------------------------
Pair    | 2338.5     | 2567.9     | 3005.3     | 508.9 | 84.28
Neigh   | 0.0022655  | 0.0024116  | 0.0028021  |   0.5 |  0.00
Comm    | 39.817     | 477.04     | 706.29     |1180.1 | 15.66
Output  | 0.17393    | 0.19956    | 0.21534    |   3.5 |  0.01
Modify  | 1.1464     | 1.3165     | 1.4459     |  11.4 |  0.04
Other   |            | 0.3992     |            |       |  0.01

Nlocal:          31.25 ave          32 max          29 min
Histogram: 1 0 0 0 0 0 0 0 0 3
Nghost:         219.25 ave         221 max         218 min
Histogram: 1 0 0 2 0 0 0 0 0 1
Neighs:         228.75 ave         236 max         209 min
Histogram: 1 0 0 0 0 0 0 0 0 3

Total # of neighbors = 915
Ave neighs/atom = 7.32
Neighbor list builds = 73
Dangerous builds = 0
next i
jump SELF loop_start
Total wall time: 9:33:15
