LAMMPS data file for polygons
1 atoms
1 bodies
1 atom types
-3.2 3.2 xlo xhi
-3.2 3.2 ylo yhi
-3.2 3.2 zlo zhi

Atoms

1 1 1 1 0 0 0

Bodies

1 3 47
4 6 4
1.872075440746712 1.8720754407467122 1.8720754407467122 0 0 0
0.0 0.0 3.747074299450218 
-1.7663877645007213 -3.0594733539832575 -1.2490247664834064 
-1.7663877645007213 3.0594733539832575 -1.2490247664834064 
3.5327755290014426 0.0 -1.2490247664834064 
0 1 
0 2 
0 3 
1 2 
1 3 
2 3 
1 2 3 -1
0 1 3 -1
0 2 1 -1
0 3 2 -1
0.3
