LAMMPS (2 Aug 2023 - Update 1)
OMP_NUM_THREADS environment is not set. Defaulting to 1 thread. (src/comm.cpp:98)
  using 1 OpenMP thread(s) per MPI task
# 3d rounded 3d

variable    r     index 5
variable    steps index 100000

units       lj
dimension   3
newton on

neighbor     1.0 bin
neigh_modify every 1 delay 0 check yes

atom_style  body rounded/polyhedron 1 20

read_data   data.3d
Reading data file ...
  orthogonal box = (-3.2 -3.2 -3.2) to (3.2 3.2 3.2)
  1 by 2 by 2 MPI processor grid
  reading atoms ...
  1 atoms
  1 bodies
  read_data CPU = 0.001 seconds

replicate   $r $r $r
replicate   5 $r $r
replicate   5 5 $r
replicate   5 5 5
Replication is creating a 5x5x5 = 125 times larger system...
  orthogonal box = (-3.2 -3.2 -3.2) to (28.8 28.8 28.8)
  1 by 2 by 2 MPI processor grid
  125 atoms
  replicate CPU = 0.001 seconds

change_box all x final -16 16 y final -16 16 z final -16 16
Changing box ...
  orthogonal box = (-16 -3.2 -3.2) to (16 28.8 28.8)
  orthogonal box = (-16 -16 -3.2) to (16 16 28.8)
  orthogonal box = (-16 -16 -16) to (16 16 16)

velocity all create 3 5165 rot yes dist gaussian
set atom * quat/random 834
Setting atom values ...
  125 settings made for quat/random

variable cut_inner  equal 0.0
variable k_n        equal 100000
variable k_na       equal 0
variable c_n        equal 0
variable c_t        equal 0
variable mu         equal 0
variable A_ua       equal 1

pair_style body/rounded/polyhedron ${c_n} ${c_t} ${mu} ${A_ua} ${cut_inner}
pair_style body/rounded/polyhedron 0 ${c_t} ${mu} ${A_ua} ${cut_inner}
pair_style body/rounded/polyhedron 0 0 ${mu} ${A_ua} ${cut_inner}
pair_style body/rounded/polyhedron 0 0 0 ${A_ua} ${cut_inner}
pair_style body/rounded/polyhedron 0 0 0 1 ${cut_inner}
pair_style body/rounded/polyhedron 0 0 0 1 0
pair_coeff * * ${k_n} ${k_na}
pair_coeff * * 100000 ${k_na}
pair_coeff * * 100000 0

comm_modify vel yes

timestep     0.0001

compute 1 all temp/body
compute 1p all pressure 1

thermo_style custom step temp ke pe etotal c_1 press c_1p c_1p[1] c_1p[2] c_1p[3] vol

thermo       100
thermo_modify norm no

compute 10 all property/atom x y z quatw quati quatj quatk
dump mydump all custom 100 dump.quat id c_10[1] c_10[2] c_10[3] c_10[4] c_10[5] c_10[6] c_10[7]

# dump	     2 all image 1000 image.*.jpg type type # 	     zoom 1.5 adiam 1.5 body type 0 0 view 75 15

fix def all deform 200000 x scale 0.952 y scale 0.952 z scale 0.952

fix          1 all nvt/body temp 1.5 1.5 0.01

variable i loop 9

label loop_start
    run          100000
Generated 0 of 0 mixed pair_coeff terms from geometric mixing rule
Neighbor list info ...
  update: every = 1 steps, delay = 0 steps, check = yes
  max neighbors/atom: 2000, page size: 100000
  master list distance cutoff = 8.4941486
  ghost atom cutoff = 8.4941486
  binsize = 4.2470743, bins = 8 8 8
  1 neighbor lists, perpetual/occasional/extra = 1 0 0
  (1) pair body/rounded/polyhedron, perpetual
      attributes: half, newton on
      pair build: half/bin/atomonly/newton
      stencil: half/bin/3d
      bin: standard
Per MPI rank memory allocation (min/avg/max) = 6.845 | 6.861 | 6.878 Mbytes
   Step          Temp          KinEng         PotEng         TotEng          c_1           Press           c_1p         c_1p[1]        c_1p[2]        c_1p[3]         Volume    
         0   3              558            39495.453      40053.453      1.4939759      6.8326022      6.8326022      11.444672     -4.8507926      13.903927      32768        
       100   2.9658994      551.65729      0              551.65729      6.7642558      0.011223496    0.051400748    0.06414763     0.027515436    0.062539177    32768        
       200   0.65343503     121.53892      0              121.53892      1.4902736      0.0024727156   0.011324406    0.014132748    0.0060620903   0.01377838     32768        
       300   0.36545743     67.975082      0              67.975082      0.83349002     0.0013829566   0.0063335881   0.0079042559   0.0033904456   0.0077060628   32768        
       400   0.47772164     88.856226      0              88.856226      1.0895283      0.0018077845   0.0082791917   0.01033235     0.0044319505   0.010073274    32768        
       500   0.86276573     160.47443      0              160.47443      1.9676892      0.0032648606   0.014952228    0.018660234    0.0080041068   0.018192343    32768        
       600   0.85677994     159.36107      0              159.36107      1.9540375      0.0032422092   0.014848491    0.018530771    0.007948575    0.018066126    32768        
       700   0.53335663     99.204333      0              99.204333      1.2164137      0.0020183173   0.0092433782   0.011535645    0.0049480911   0.011246398    32768        
       800   0.47414976     88.191855      0              88.191855      1.081382       0.0017942679   0.0082172889   0.010255096    0.0043988132   0.0099979575   32768        
       900   0.67792488     126.09403      0              126.09403      1.5461271      0.0025653896   0.011748829    0.014662424    0.0062892891   0.014294775    32768        
      1000   0.86689461     161.2424       0              161.2424       1.9771058      0.003280485    0.015023784    0.018749535    0.0080424115   0.018279405    32768        
      1100   0.6632235      123.35957      0              123.35957      1.512598       0.0025097569   0.011494046    0.014344457    0.0061529005   0.013984781    32768        
      1200   0.50464863     93.864646      0              93.864646      1.1509401      0.0019096811   0.008745852    0.010914738    0.0046817594   0.010641059    32768        
      1300   0.57893864     107.68259      0              107.68259      1.3203715      0.0021908078   0.010033341    0.012521511    0.0053709675   0.012207544    32768        
      1400   0.79236323     147.37956      0              147.37956      1.8071239      0.0029984449   0.013732112    0.017137541    0.0073509641   0.016707831    32768        
      1500   0.76295497     141.90963      0              141.90963      1.7400532      0.0028871587   0.01322245     0.016501488    0.0070781359   0.016087726    32768        
      1600   0.56587244     105.25227      0              105.25227      1.2905717      0.002141363    0.0098068959   0.01223891     0.0052497489   0.011932029    32768        
      1700   0.50578895     94.076744      10.254653      104.3314       1.1956841      0.068970834    0.076142694    0.00018251907  0.19842749     0.029818073    32768        
      1800   0.72202508     134.29667      0.81526694     135.11193      1.6142256      0.020836962    0.030370991    0.01071999     0.064973574    0.015419409    32768        
      1900   0.83695993     155.67455      0              155.67455      1.8491953      0.0031672068   0.014051808    0.011600432    0.010423861    0.02013113     32768        
      2000   0.65658101     122.12407      0              122.12407      1.4506627      0.0024846205   0.011023407    0.0091003442   0.0081773437   0.015792533    32768        
      2100   0.54436699     101.25226      1.0138313      102.26609      1.2037575      0.025647579    0.032734801    0.079565692    0.0078366586   0.010802053    32768        
      2200   0.66572718     123.82526      0              123.82526      1.4129269      0.0025192313   0.010736657    0.008690947    0.0081583097   0.015360715    32768        
      2300   0.87369876     162.50797      0.002316199    162.51029      1.8139165      0.0044046176   0.014882113    0.020926425    0.011614905    0.012105008    32768        
      2400   0.79887101     148.59001      0              148.59001      1.6585808      0.0030230715   0.012603352    0.016098621    0.010619856    0.011091578    32768        
      2500   0.61370062     114.14831      0              114.14831      1.2741382      0.0023223534   0.0096820194   0.01236712     0.0081582783   0.0085206596   32768        
      2600   0.61319287     114.05387      0              114.05387      1.273084       0.002320432    0.009674009    0.012356888    0.0081515285   0.00851361     32768        
      2700   0.8259283      153.62266      0              153.62266      1.6415668      0.0031254611   0.012474064    0.013159828    0.011832451    0.012429913    32768        
      2800   0.91657957     170.4838       0              170.4838       1.7865406      0.0034685018   0.013575702    0.01452645     0.01268843     0.013512226    32768        
      2900   0.84711912     157.56416      0              157.56416      1.4382072      0.003205651    0.01092876     0.01131361     0.0077983883   0.01367428     32768        
      3000   0.74216644     138.04296      0              138.04296      1.2600225      0.0028084912   0.0095747558   0.0099119258   0.0068322176   0.011980124    32768        
      3100   0.87943357     163.57464      25.939262      189.51391      1.3851019      0.24379828     0.25099557     0.6536874     -0.0099354878   0.1092348      32768        
      3200   1.2335147      229.43373      0              229.43373      1.7617784      0.0046678413   0.013387537    0.010721586    0.01237284     0.017068185    32768        
      3300   1.125828       209.40402      0.00025342178  209.40427      1.6093034      0.0046340383   0.012602601    0.0098160098   0.011286375    0.016705418    32768        
      3400   0.95308887     177.27453      0.55665866     177.83119      1.3011192      0.042263092    0.048543477    0.12413044     0.0091909942   0.012308997    32768        
      3500   0.97560396     181.46234      0              181.46234      1.3259644      0.0036918607   0.01007584     0.0079507885   0.0093540332   0.012922699    32768        
      3600   1.2041151      223.96541      0              223.96541      1.6365388      0.0045565878   0.012435857    0.0098130643   0.011544984    0.015949522    32768        
      3700   1.3677221      254.39631      55.250182      309.6465       1.5759641      0.17742674     0.18422659     0.0319384     -0.0022037459   0.52294512     32768        
      3800   1.5186779      282.47408      0              282.47408      1.4634593      0.0057469499   0.011120647    0.0077316654   0.0079131014   0.017717174    32768        
      3900   1.3521804      251.50555      0.11972075     251.62527      1.2949276      0.011689464    0.016412567    0.00445748     0.0067310823   0.038049138    32768        
      4000   1.5166719      282.10097      0              282.10097      1.4526485      0.0057393589   0.011038497    0.0079345876   0.0077426519   0.017438251    32768        
      4100   1.8917645      351.8682       0              351.8682       1.7161421      0.0071587769   0.013040753    0.0095515038   0.0091039546   0.020466801    32768        
      4200   1.7653672      328.35829      0              328.35829      1.6014789      0.0066804666   0.012169441    0.0089133245   0.0084956782   0.019099321    32768        
      4300   1.4702502      273.46653      0              273.46653      1.3337592      0.0055636908   0.010135072    0.0074232811   0.0070754528   0.015906481    32768        
      4400   1.4815595      275.57006      0              275.57006      1.3440186      0.0056064873   0.010213032    0.0074803818   0.0071298779   0.016028835    32768        
      4500   1.6541747      307.6765       0              307.6765       1.615986       0.0062596944   0.012279679    0.0098381495   0.0096571349   0.017343752    32768        
      4600   1.7394886      323.54487      0              323.54487      1.6993303      0.0065825373   0.012913002    0.010345551    0.0101552      0.018238254    32768        
      4700   1.390067       258.55247      0              258.55247      1.4368576      0.0052602634   0.010918504    0.009275178    0.0078856981   0.015594636    32768        
      4800   1.2659625      235.46903      0              235.46903      1.3082241      0.0047906297   0.0099410341   0.0084437078   0.0071868839   0.014192511    32768        
      4900   1.4356176      267.02487      0              267.02487      1.4835428      0.0054326349   0.011273259    0.0095752718   0.0081500176   0.016094487    32768        
      5000   1.6464079      306.23187      0              306.23187      1.7013699      0.0062303033   0.0129285      0.010981199    0.0093466766   0.018457625    32768        
      5100   1.5316684      284.89032      0.98850575     285.87883      1.5602405      0.029638034    0.035698001    0.013478892    0.063997525    0.029617588    32768        
      5200   1.2955026      240.96347      0              240.96347      1.3401054      0.0049024144   0.010183296    0.0086027403   0.0071921854   0.014754963    32768        
      5300   1.2982408      241.4728       1.5737549      243.04655      1.375765       0.028404011    0.033945503    0.087432167    0.0028132726   0.011591071    32768        
      5400   1.4317301      266.3018       0              266.3018       1.6303684      0.005417924    0.012388969    0.010404245    0.0092020798   0.017560581    32768        
      5500   1.4725908      273.90189      0              273.90189      1.6768981      0.0055725482   0.012742542    0.010701176    0.0094647015   0.018061749    32768        
      5600   1.2386146      230.38232      0.73373483     231.11605      1.4164564      0.02321886     0.029295197    0.0089048661   0.064951368    0.014029357    32768        
      5700   1.1350555      211.12032      0              211.12032      1.3170503      0.0042952538   0.010008103    0.0084275542   0.0073728905   0.014223865    32768        
      5800   1.2993512      241.67933      0              241.67933      1.5076893      0.0049169785   0.011456745    0.0096474166   0.0084400936   0.016282726    32768        
      5900   1.4643802      272.37472      0              272.37472      1.699179       0.0055414779   0.012911852    0.010872723    0.0095120595   0.018350775    32768        
      6000   1.3240193      246.26759      0.00020532369  246.26779      1.5363119      0.0052958516   0.011959769    0.0097632866   0.0094770932   0.016638929    32768        
      6100   1.1376411      211.60125      0              211.60125      1.3330763      0.0043050384   0.010129882    0.0089625577   0.0073018116   0.014125278    32768        
      6200   1.1961061      222.47573      0              222.47573      1.4015849      0.0045262802   0.010650471    0.0094231559   0.0076770618   0.014851196    32768        
      6300   1.3999622      260.39298      0              260.39298      1.6404615      0.0052977087   0.012465665    0.011029175    0.008985488    0.017382332    32768        
      6400   1.4223315      264.55366      2.363032       266.91669      1.6329548      0.033707701    0.040733966    0.02592593     0.0069465363   0.089329431    32768        
      6500   1.2525891      232.98158      4.1849714      237.16655      1.3999406      0.038794208    0.044692162    0.13357693     0.010043866   -0.0095443099   32768        
      6600   1.2038369      223.91365      0              223.91365      1.348576       0.004555535    0.010247663    0.008981759    0.0073504135   0.014410817    32768        
      6700   1.3677418      254.39998      0              254.39998      1.5321875      0.0051757808   0.011642905    0.010204645    0.008351188    0.016372881    32768        
      6800   1.4918885      277.49127      0              277.49127      1.6712606      0.0056455742   0.012699704    0.011130896    0.0091092057   0.017859009    32768        
      6900   1.3461961      250.39247      0              250.39247      1.5080513      0.0050942478   0.011459496    0.010043893    0.0082196335   0.016114963    32768        
      7000   1.192807       221.8621       0              221.8621       1.3488991      0.004513796    0.010250118    0.0096449132   0.007309631    0.01379581     32768        
      7100   1.2592728      234.22474      0              234.22474      1.43584        0.0047653144   0.010910771    0.01005552     0.0082956297   0.014381164    32768        
      7200   1.4373372      267.34471      0              267.34471      1.6388714      0.0054391421   0.012453582    0.011477396    0.009468653    0.016414697    32768        
      7300   1.434627       266.84062      0              266.84062      1.6040258      0.0054288863   0.012188795    0.011023507    0.010093295    0.015449583    32768        
      7400   1.268438       235.92947      2.0407696      237.97024      1.3997974      0.038851944    0.044688835    0.11264243     0.00962404     0.011800038    32768        
      7500   1.2470357      231.94865      0              231.94865      1.3756076      0.0047190073   0.010453073    0.0092795517   0.0091733336   0.012906333    32768        
      7600   1.4097097      262.20601      0              262.20601      1.5503823      0.005334595    0.011781164    0.010205845    0.010477117    0.01466053     32768        
      7700   1.4976629      278.5653       0              278.5653       1.6471121      0.0056674254   0.012516202    0.010842598    0.011130795    0.015575214    32768        
      7800   1.3521232      251.49492      0              251.49492      1.4863757      0.0051166772   0.011294786    0.009806461    0.0099750576   0.01410284     32768        
      7900   1.1871651      220.81271      11.506055      232.31877      1.3301287      0.06166503     0.067280068    0.00817814     0.022435036    0.17122703     32768        
      8000   1.2222288      227.33455      0.18467401     227.51922      1.470048       0.014472996    0.021018576    0.0095014552   0.013958034    0.039596239    32768        
      8100   1.380012       256.68224      0              256.68224      1.6402736      0.0052222135   0.012464237    0.010656425    0.012461753    0.014274534    32768        
      8200   1.3166048      244.88849      0              244.88849      1.5649082      0.0049822692   0.011891545    0.010166796    0.011889174    0.013618664    32768        
      8300   1.1678322      217.21679      0.28410391     217.5009       1.3868416      0.0149137      0.021032851    0.0092001855   0.011383636    0.042514732    32768        
      8400   1.1959957      222.45519      0.12100831     222.5762       1.4007299      0.011526705    0.017644817    0.0081616701   0.032186644    0.012586136    32768        
      8500   1.3528147      251.62353      0              251.62353      1.5834864      0.0051192938   0.012032719    0.010356565    0.011928462    0.013813129    32768        
      8600   1.3897782      258.49874      0              258.49874      1.6267527      0.0052591704   0.012361494    0.010639542    0.012254389    0.014190551    32768        
      8700   1.2530104      233.05993      0.09890005     233.15883      1.4511141      0.010253725    0.016538946    0.010104799    0.010370164    0.029141876    32768        
      8800   1.1547093      214.77592      4.6111968      219.38712      1.3549674      0.042522185    0.048448788    0.013981464    0.12774909     0.0036158092   32768        
      8900   1.2585469      234.08973      0              234.08973      1.5012592      0.0047625677   0.011407884    0.010209501    0.010388177    0.013625975    32768        
      9000   1.3757837      255.89577      0              255.89577      1.6411053      0.0052062128   0.012470557    0.011160541    0.011355862    0.014895269    32768        
      9100   1.2089359      224.86207      0              224.86207      1.5379221      0.0045748306   0.011686481    0.011441314    0.010285924    0.013332205    32768        
      9200   1.0854402      201.89187      0              201.89187      1.3822261      0.0041075007   0.010503366    0.010038349    0.009159171    0.012312579    32768        
      9300   1.1839519      220.21505      0.76375693     220.97881      1.4195597      0.025503014    0.031809787    0.0093936732   0.072338714    0.013696973    32768        
      9400   1.334752       248.26387      0              248.26387      1.599694       0.0050509414   0.012155878    0.011633562    0.010039299    0.014794774    32768        
      9500   1.3423925      249.685        0              249.685        1.6088511      0.0050798543   0.012225461    0.011700155    0.010096766    0.014879463    32768        
      9600   1.1955685      222.37574      0              222.37574      1.4328832      0.004524246    0.010888303    0.010420452    0.008992434    0.013252024    32768        
      9700   1.1537396      214.59556      0              214.59556      1.3782095      0.0043659578   0.010472844    0.0096551517   0.0088736416   0.01288974     32768        
      9800   1.2752173      237.19042      0              237.19042      1.5233218      0.0048256514   0.011575535    0.010671747    0.0098079512   0.014246906    32768        
      9900   1.3693562      254.70024      0              254.70024      1.6357762      0.0051818897   0.012430062    0.011459555    0.010531992    0.015298639    32768        
     10000   1.2555713      233.53626      0              233.53626      1.5106609      0.0047513074   0.011479326    0.010664829    0.0097359994   0.01403715     32768        
     10100   1.1272874      209.67545      2.7435655      212.41901      1.3720957      0.037783064    0.043943592    0.080458618    0.020661289    0.030710871    32768        
     10200   1.2253512      227.91533      0              227.91533      1.4577094      0.0046369493   0.011076954    0.010945661    0.0090488029   0.013236399    32768        
     10300   1.3533681      251.72648      0.78889113     252.51537      1.6174893      0.022020713    0.029190427    0.012014517    0.0097388002   0.065817964    32768        
     10400   1.2991656      241.64481      0              241.64481      1.5916837      0.0049162762   0.012095009    0.010226048    0.010205088    0.01585389     32768        
     10500   1.1822845      219.90492      0              219.90492      1.4192349      0.004473977    0.010784591    0.0094483548   0.0090661049   0.013839314    32768        
     10600   1.1557561      214.97064      0              214.97064      1.3893276      0.0043735889   0.010557329    0.009322659    0.0088303711   0.013518957    32768        
     10700   1.2825206      238.54883      0              238.54883      1.5417104      0.0048532885   0.011715268    0.010345178    0.009798895    0.01500173     32768        
     10800   1.3842839      257.47681      1.8852962      259.3621       1.6249074      0.029101666    0.036210758    0.05808151     0.028873027    0.021677737    32768        
     10900   1.3571066      252.42183      0              252.42183      1.4987123      0.0051355353   0.011388531    0.010180572    0.010486679    0.013498341    32768        
     11000   1.2712335      236.44942      0.58133671     237.03076      1.3901466      0.017495019    0.023247996    0.014194007    0.014475282    0.041074699    32768        
     11100   1.3409556      249.41774      0              249.41774      1.4696174      0.0050744168   0.011167442    0.011717469    0.010674552    0.011110305    32768        
     11200   1.4619165      271.91647      1.478401       273.39488      1.5996382      0.0345262      0.041149498    0.0094852336   0.10483755     0.0091257083   32768        
     11300   1.3526571      251.59421      2.2392765      253.83349      1.5572987      0.036201147    0.042916171    0.10593989     0.01021582     0.012592803    32768        
     11400   1.2387629      230.4099       2.1736176      232.58352      1.4195818      0.061425347    0.067524873    0.032461943    0.011367584    0.15874509     32768        
     11500   1.2357204      229.84399      0              229.84399      1.415739       0.0046761879   0.010758026    0.01086894     0.010198225    0.011206914    32768        
     11600   1.3498471      251.07156      0              251.07156      1.5464916      0.005108064    0.011751599    0.011872757    0.011140096    0.012241945    32768        
     11700   1.4010352      260.59255      0.5354469      261.128        1.6003294      0.021628205    0.028487143    0.051015004    0.021906677    0.012539747    32768        
     11800   1.2796472      238.01438      0.84422292     238.8586       1.4801179      0.019074086    0.025478905    0.018926114    0.012608635    0.044901966    32768        
     11900   1.2178997      226.52934      0.81208903     227.34143      1.3983649      0.025946864    0.031964116    0.0088894335   0.011251073    0.07575184     32768        
     12000   1.2847423      238.96207      1.327178       240.28925      1.4793829      0.029629649    0.036009602    0.013299449    0.013986466    0.08074289     32768        
     12100   1.372796       255.34006      2.9785581      258.31862      1.5948607      0.048378746    0.055302989    0.074957608    0.017761835    0.073189523    32768        
     12200   1.2853453      239.07422      0              239.07422      1.5519061      0.0048639775   0.011792744    0.011940741    0.010957952    0.012479538    32768        
     12300   1.1763832      218.80728      0              218.80728      1.4177138      0.0044516456   0.010773033    0.010835839    0.010050608    0.01143265     32768        
     12400   1.1795297      219.39253      0              219.39253      1.4215058      0.0044635525   0.010801847    0.010864822    0.01007749     0.01146323     32768        
     12500   1.293787       240.64438      0.19164746     240.83603      1.5565343      0.013934468    0.020866458    0.01013756     0.036225403    0.016236412    32768        
     12600   1.3239609      246.25672      0              246.25672      1.5988346      0.0050101058   0.012149347    0.012069234    0.011320789    0.013058019    32768        
     12700   1.2159676      226.16998      0              226.16998      1.4721053      0.0046014399   0.011186347    0.01137948     0.010242026    0.011937536    32768        
     12800   1.1572159      215.24215      6.4085535      221.6507       1.3826463      0.040420497    0.046547943    0.038721885    0.0081087832   0.092813161    32768        
     12900   1.2476158      232.05655      0              232.05655      1.4976926      0.0047212025   0.011380782    0.011055253    0.010757473    0.01232962     32768        
     13000   1.3376034      248.79423      0.74610829     249.54034      1.603048       0.022098616    0.029218249    0.034865952    0.036658043    0.01613075     32768        
     13100   1.2848614      238.98421      0              238.98421      1.5305659      0.0048621462   0.011630582    0.011484226    0.010893158    0.012514361    32768        
     13200   1.1830338      220.04428      0              220.04428      1.4092658      0.0044768124   0.010708837    0.010574081    0.010029856    0.011522575    32768        
     13300   1.194265       222.13328      0              222.13328      1.4389576      0.0045193132   0.010934462    0.01093372     0.010258363    0.011611302    32768        
     13400   1.3062         242.95319      0              242.95319      1.5738269      0.0049428953   0.011959317    0.011958506    0.01121985     0.012699596    32768        
     13500   1.2996307      241.73132      6.4479692      248.17929      1.5676136      0.057394455    0.064388521    0.1175496      0.026852089    0.048763876    32768        
     13600   1.2269634      228.2152       3.2260655      231.44127      1.4499966      0.043079168    0.049454464    0.025489744    0.048214518    0.07465913     32768        
     13700   1.226287       228.08938      0              228.08938      1.4107968      0.0046404904   0.010720471    0.010759171    0.010878089    0.010524154    32768        
     13800   1.3060741      242.92978      0              242.92978      1.511311       0.0049424191   0.011484267    0.011494371    0.011791254    0.011167175    32768        
     13900   1.3922519      258.95885      0              258.95885      1.6063321      0.0052685313   0.01220632     0.011350947    0.013138098    0.012129915    32768        
     14000   1.3117764      243.99041      0.16003395     244.15045      1.5216796      0.012514978    0.019114036    0.011336363    0.034256829    0.011748918    32768        
     14100   1.2143862      225.87584      0              225.87584      1.4067115      0.0045954557   0.010689427    0.0099860051   0.011410568    0.010671709    32768        
     14200   1.2625163      234.82803      0              234.82803      1.4460853      0.0047775885   0.010988625    0.010155922    0.011952464    0.010857488    32768        
     14300   1.3792324      256.53722      0              256.53722      1.5797719      0.0052192632   0.012004492    0.011094808    0.013057436    0.011861232    32768        
     14400   1.3773841      256.19344      0              256.19344      1.5776548      0.0052122688   0.011988405    0.01107994     0.013039937    0.011845337    32768        
     14500   1.2646186      235.21906      0              235.21906      1.4445163      0.004785544    0.010976701    0.010169043    0.011940919    0.010820141    32768        
     14600   1.228177       228.44091      0.72274659     229.16366      1.4061656      0.02075202     0.026789658    0.05073184     0.020139619    0.0094975136   32768        
     14700   1.3046731      242.6692       0.23348213     242.90268      1.5264364      0.025011418    0.031673503    0.024782608    0.017296014    0.052941886    32768        
     14800   1.359842       252.93062      0              252.93062      1.6061176      0.0051458866   0.01220469     0.01148517     0.013374385    0.011754515    32768        
     14900   1.2711532      236.43449      0              236.43449      1.5013666      0.004810272    0.0114087      0.010736107    0.012502108    0.010987886    32768        
     15000   1.2052504      224.17658      0              224.17658      1.401938       0.0045608842   0.010653154    0.0095063979   0.012100789    0.010352276    32768        
     15100   1.2526667      232.99601      1.0707696      234.06678      1.46461        0.021830953    0.028220028    0.011476861    0.0040141924   0.06916903     32768        
     15200   1.3568796      252.37961      0              252.37961      1.5961512      0.0051346763   0.012128956    0.011145958    0.013791565    0.011449346    32768        
     15300   1.3695191      254.73055      1.4310094      256.16156      1.559702       0.033310696    0.039980173    0.018031904    0.013574607    0.088334009    32768        
     15400   1.250935       232.67391      0              232.67391      1.4342031      0.0047337628   0.010898333    0.0099317762   0.01229992     0.010463301    32768        
     15500   1.3108131      243.81123      0              243.81123      1.4193125      0.0049603522   0.010785181    0.0097639178   0.012045038    0.010546586    32768        
     15600   1.4128142      262.78344      0.91484702     263.69828      1.5373855      0.022707481    0.029043542    0.06144909     0.013406738    0.012274798    32768        
     15700   1.4594307      271.45411      0              271.45411      1.5979205      0.0055227481   0.012142401    0.010886345    0.013441219    0.012099639    32768        
     15800   1.3512527      251.333        1.3471049      252.6801       1.4832595      0.026424905    0.032582629    0.012863293    0.016027012    0.068857582    32768        
     15900   1.2695359      236.13368      2.3285181      238.4622       1.3981283      0.031983028    0.037803081    0.011788163    0.093770284    0.0078507968   32768        
     16000   1.3452365      250.21399      0.016985664    250.23098      1.4803882      0.0073542228   0.013512894    0.017319811    0.012172714    0.011046156    32768        
     16100   1.4442577      268.63194      0.018119923    268.65006      1.5941532      0.0082884277   0.014936871    0.01127441     0.021399459    0.012136743    32768        
     16200   1.4058251      261.48346      0              261.48346      1.5464712      0.0053198947   0.011751444    0.010329085    0.013327259    0.011597988    32768        
     16300   1.2939811      240.68049      0              240.68049      1.4234378      0.0048966571   0.010816529    0.0095073288   0.012266976    0.010675281    32768        
     16400   1.3109809      243.84245      2.0494237      245.89188      1.4249874      0.027299992    0.033167309    0.0088559901   0.087464847    0.0031810907   32768        
     16500   1.4316655      266.28978      2.4957121      268.78549      1.5538286      0.03734689     0.043736563    0.0050037228   0.010828155    0.11537781     32768        
     16600   1.4531274      270.2817       1.1536549      271.43536      1.5883015      0.036343119    0.042913531    0.060448564    0.055345157    0.012946873    32768        
     16700   1.335964       248.48931      0.43017068     248.91948      1.4652872      0.015455839    0.021534848    0.0056813347   0.045702007    0.013221203    32768        
     16800   1.2788257      237.86157      0              237.86157      1.4032111      0.0048393061   0.010662829    0.0088429696   0.012146401    0.010999116    32768        
     16900   1.3713         255.0618       0              255.0618       1.4994011      0.0051892457   0.011393764    0.0096410438   0.012982362    0.011557886    32768        
     17000   1.4643404      272.36731      0              272.36731      1.6011328      0.005541327    0.012166811    0.010295172    0.013863193    0.012342069    32768        
     17100   1.3914389      258.80763      0              258.80763      1.5276374      0.0052654547   0.011608328    0.0098375614   0.013176457    0.011810967    32768        
     17200   1.2863626      239.26344      0              239.26344      1.4122758      0.0048678271   0.01073171     0.0090946652   0.01218142     0.010919046    32768        
     17300   1.3135595      244.32206      0.0013027469   244.32336      1.4421439      0.0055444182   0.011532347    0.011159298    0.012299752    0.011137991    32768        
     17400   1.4282376      265.65219      0.10900009     265.76119      1.5706546      0.012708088    0.019238592    0.032384016    0.013492104    0.011839655    32768        
     17500   1.4442636      268.63303      0              268.63303      1.580925       0.0054653529   0.012013255    0.0098536616   0.013489245    0.012696857    32768        
     17600   1.3226638      246.01547      1.9668716      247.98234      1.4494717      0.032432955    0.038442115    0.092423748    0.010160171    0.012742425    32768        
     17700   1.2956568      240.99216      0.06463376     241.05679      1.4112273      0.0091949857   0.01501573     0.0095305968   0.011846089    0.023670505    32768        
     17800   1.3720557      255.20236      0              255.20236      1.5165494      0.0051921053   0.011524072    0.0098539866   0.012321733    0.012396497    32768        
     17900   1.4461957      268.99239      0.82127516     269.81367      1.5974358      0.026308818    0.032974872    0.048747938    0.021234252    0.028942425    32768        
     18000   1.3726186      255.30707      0              255.30707      1.5108848      0.0051942355   0.011481028    0.009967487    0.01234868     0.012126917    32768        
     18100   1.2577958      233.95001      0.0092174729   233.95923      1.4105536      0.0063621832   0.012321081    0.0093964371   0.015311847    0.012254961    32768        
     18200   1.3005456      241.90149      0              241.90149      1.4582131      0.0049214984   0.011080782    0.0096005734   0.011610583    0.012031189    32768        
     18300   1.4081634      261.91839      0              261.91839      1.5788776      0.0053287434   0.011997696    0.010395003    0.012571337    0.013026748    32768        
     18400   1.3949889      259.46794      0              259.46794      1.5657816      0.0052788888   0.011898181    0.010376805    0.012408633    0.012909107    32768        
     18500   1.2866605      239.31885      0              239.31885      1.4441901      0.0048689545   0.010974223    0.0095709896   0.011445035    0.011906645    32768        
     18600   1.248204       232.16595      0              232.16595      1.4204412      0.0047234284   0.010793758    0.0092574869   0.011131091    0.011992695    32768        
     18700   1.3447514      250.12377      0              250.12377      1.5303109      0.005088781    0.011628644    0.0099735447   0.01199207     0.012920319    32768        
     18800   1.3949612      259.46278      2.0480314      261.51081      1.5869198      0.047743176    0.054523201    0.069212247    0.021312054    0.073045301    32768        
     18900   1.3210373      245.71294      0.82039049     246.53333      1.4952416      0.02230522     0.028668334    0.045013026    0.029071091    0.011920886    32768        
     19000   1.2480003      232.12806      0              232.12806      1.4120703      0.0047226575   0.010730148    0.0091294691   0.0109941      0.012066876    32768        
     19100   1.2809376      238.25439      0              238.25439      1.4731704      0.0048472979   0.011194441    0.0097226438   0.01148027     0.012380409    32768        
     19200   1.5263669      283.90424      1.4246174      285.32886      1.5878119      0.032350226    0.038639766    0.083771358    0.010531367    0.021616573    32768        
     19300   1.5174453      282.24483      0.8453705      283.0902       1.5710408      0.021431638    0.027627498    0.0074448701   0.065229706    0.010207919    32768        
     19400   1.3820094      257.05374      0.11158284     257.16532      1.4358939      0.011653305    0.017334714    0.0303006      0.0096222287   0.012081314    32768        
     19500   1.3581556      252.61694      0.06781473     252.68476      1.4113445      0.0088313247   0.014416453    0.020946339    0.0099392089   0.012363812    32768        
     19600   1.4550714      270.64328      0.23883032     270.88211      1.5347918      0.024543565    0.030700007    0.010592444    0.067422499    0.014085079    32768        
     19700   1.5283699      284.27679      0              284.27679      1.604474       0.0057836262   0.012192201    0.011220623    0.012792245    0.012563734    32768        
     19800   1.4230976      264.69615      0              264.69615      1.493396       0.0053852569   0.011348132    0.010473781    0.011881402    0.011689214    32768        
     19900   1.3346445      248.24389      0              248.24389      1.4005736      0.0050505348   0.010642786    0.0098227806   0.01114291     0.010962668    32768        
     20000   1.4016335      260.70383      0              260.70383      1.4708716      0.0053040329   0.011176972    0.010315809    0.011702199    0.01151291     32768        
     20100   1.5182018      282.38553      0              282.38553      1.5931982      0.0057451483   0.012106517    0.011173734    0.012675424    0.012470393    32768        
     20200   1.4951242      278.0931       0              278.0931       1.5561072      0.0056578187   0.011824667    0.011038985    0.012353475    0.012081543    32768        
     20300   1.3710568      255.01656      0.31504074     255.3316       1.4277676      0.018528962    0.024190067    0.038995692    0.026027373    0.007547136    32768        
     20400   1.3954389      259.55163      1.6013866      261.15302      1.4212208      0.04036771     0.0458868      0.013843586    0.035126014    0.0886908      32768        
     20500   1.5131461      281.44517      0              281.44517      1.5506329      0.0057260165   0.011783069    0.010644481    0.012774708    0.011930018    32768        
     20600   1.5508247      288.4534       0.0052177927   288.45862      1.5926822      0.0072718909   0.013505888    0.015182217    0.013154516    0.01218093     32768        
     20700   1.4352559      266.9576       0              266.9576       1.4777423      0.0054312663   0.011229182    0.010382853    0.012130783    0.011173908    32768        
     20800   1.3764208      256.01427      0.23272088     256.24699      1.4082512      0.0151827      0.020675204    0.041106121    0.011516593    0.0094028963   32768        
     20900   1.4587919      271.33529      1.1729645      272.50826      1.4885306      0.027751299    0.03354213     0.034257291    0.063302458    0.0030666418   32768        
     21000   1.562661       290.65495      0.15719851     290.81215      1.5923279      0.012887187    0.0190737      0.013333513    0.030449207    0.01343838     32768        
     21100   1.5199855      282.71729      0              282.71729      1.5376807      0.0057518981   0.011684647    0.010915422    0.01252845     0.011610067    32768        
     21200   1.3889805      258.35038      0              258.35038      1.4244009      0.0052561519   0.010823847    0.010285958    0.011891138    0.010294446    32768        
     21300   1.3817385      257.00336      0              257.00336      1.4409522      0.0052287468   0.010949619    0.010924512    0.011735298    0.010189046    32768        
     21400   1.4969719      278.43678      0              278.43678      1.5611239      0.0056648108   0.011862789    0.011835588    0.012713991    0.011038786    32768        
     21500   1.512591       281.34192      0              281.34192      1.5774123      0.005723916    0.011986562    0.011959078    0.012846646    0.011153962    32768        
     21600   1.408586       261.997        0              261.997        1.459513       0.0053303427   0.01109066     0.011120723    0.011867242    0.010284015    32768        
     21700   1.3650514      253.89957      0              253.89957      1.4144044      0.0051655999   0.010747885    0.010777019    0.011500465    0.0099661709   32768        
     21800   1.4630788      272.13266      0.0043552827   272.13701      1.5159666      0.0065638345   0.012546925    0.010989277    0.015591851    0.011059647    32768        
     21900   1.5369685      285.87614      0              285.87614      1.5955122      0.005816165    0.012124101    0.011783296    0.013085133    0.011503874    32768        
     22000   1.4449117      268.75358      0.37743641     269.13102      1.4984737      0.016668398    0.02258731     0.0114451      0.010905784    0.045411046    32768        
     22100   1.3504386      251.18157      0              251.18157      1.4014017      0.0051103022   0.010649079    0.010356415    0.011430122    0.010160698    32768        
     22200   1.4403725      267.90928      0.6410648      268.55034      1.4858065      0.028916032    0.034755865    0.01085484     0.052890274    0.040522479    32768        
     22300   1.5886892      295.49619      0.058663704    295.55485      1.6397757      0.010391455    0.016840023    0.012879157    0.024710611    0.012930302    32768        
     22400   1.5403547      286.50597      0              286.50597      1.5702275      0.0058289788   0.011931965    0.011840203    0.012597854    0.011357838    32768        
     22500   1.4624559      272.0168       0.317623       272.33442      1.4905724      0.018622262    0.024414743    0.032885537    0.02263794     0.017720751    32768        
     22600   1.4320283      266.35726      0.1598124      266.51708      1.4553925      0.012955541    0.018595837    0.028561909    0.016313311    0.010912291    32768        
     22700   1.4812426      275.51112      1.0010255      276.51214      1.5099812      0.030245218    0.036114091    0.02843649     0.056861348    0.023044434    32768        
     22800   1.6223398      301.7552       0              301.7552       1.6526019      0.0061392253   0.012557918    0.012489072    0.013213453    0.011971229    32768        
     22900   1.5143585      281.67067      0              281.67067      1.5415999      0.0057306045   0.011714428    0.011636845    0.012356385    0.011150055    32768        
     23000   1.3710136      255.00853      3.2756336      258.28416      1.3963205      0.043426028    0.048848334    0.066414691    0.043242891    0.036887419    32768        
     23100   1.4569635      270.9952       1.0486542      272.04386      1.4740514      0.020152863    0.025840587    0.027223329    0.040655523    0.0096429087   32768        
     23200   1.5467966      287.70416      0              287.70416      1.5676739      0.0058533561   0.011912561    0.012358722    0.012077599    0.011301363    32768        
     23300   1.511386       281.1178       0.34843124     281.46623      1.5287306      0.017281103    0.023178382    0.021525604    0.014113225    0.033896317    32768        
     23400   1.3334459      248.02094      0.041889221    248.06283      1.341734       0.0087310764   0.013880749    0.019102594    0.011251064    0.011288589    32768        
     23500   1.3486415      250.84732      0              250.84732      1.3575874      0.0051035019   0.01031614     0.010501985    0.010523337    0.0099230978   32768        
     23600   1.4950433      278.07805      1.5894983      279.66755      1.4842429      0.039206702    0.044827768    0.041681363    0.016094626    0.076707316    32768        
     23700   1.5472143      287.78185      0.59679335     288.37865      1.5214531      0.022403666    0.028110064    0.013514988    0.011881513    0.058933691    32768        
     23800   1.5159898      281.97411      2.0297388      284.00384      1.510945       0.033438971    0.039183679    0.034919344    0.049522591    0.033109102    32768        
     23900   1.468679       273.17429      1.7940142      274.9683       1.4633179      0.075273492    0.08083532     0.14784055     0.04152485     0.05314056     32768        
     24000   1.454344       270.50799      0              270.50799      1.4446885      0.0055034991   0.01097801     0.010890044    0.010413586    0.0116304      32768        
     24100   1.5558465      289.38744      0              289.38744      1.5455171      0.0058876026   0.011744194    0.011650088    0.011140378    0.012442116    32768        
     24200   1.6476426      306.46152      0              306.46152      1.628745       0.0062349755   0.012376633    0.012535105    0.011396498    0.013198294    32768        
     24300   1.5011196      279.20824      0              279.20824      1.4663877      0.0056805062   0.011142899    0.01121663     0.0104733      0.011738768    32768        
     24400   1.4477318      269.27812      0              269.27812      1.4026118      0.0054784773   0.010658274    0.011014165    0.010064514    0.010896145    32768        
     24500   1.5285193      284.30459      0              284.30459      1.4808815      0.0057841918   0.011253036    0.011628786    0.010626143    0.01150418     32768        
     24600   1.587213       295.22161      0.083290793    295.3049       1.5353453      0.011683166    0.017343768    0.028999021    0.010814951    0.012217331    32768        
     24700   1.5670016      291.46229      0              291.46229      1.5160683      0.0059298156   0.011520416    0.01210675     0.01088676     0.011567739    32768        
     24800   1.4698138      273.38537      0              273.38537      1.4139329      0.0055620396   0.010744302    0.011180901    0.010265295    0.01078671     32768        
     24900   1.3381136      248.88912      0              248.88912      1.2872397      0.0050636621   0.0097815763   0.010179054    0.0093454899   0.0098201845   32768        
     25000   1.5622298      290.57475      0              290.57475      1.4617544      0.0059117585   0.011107692    0.01144231     0.01074829     0.011132475    32768        
     25100   1.6600266      308.76495      0.19140417     308.95635      1.5442561      0.016420945    0.021873718    0.028085046    0.028677034    0.0088590734   32768        
     25200   1.6325779      303.6595       0.027317846    303.68681      1.5166719      0.009504991    0.014852026    0.015104277    0.015122828    0.014328972    32768        
     25300   1.5373717      285.95113      0.046963909    285.9981       1.4372768      0.010590422    0.015694421    0.011156903    0.025083105    0.010843254    32768        
     25400   1.5284496      284.29163      0              284.29163      1.4292094      0.0057839279   0.010860387    0.011100961    0.010426271    0.011053927    32768        
     25500   1.723883       320.64224      1.3692302      322.01147      1.6038161      0.031869618    0.037533336    0.019213084    0.031559185    0.06182774     32768        
     25600   1.7349836      322.70695      0              322.70695      1.6075183      0.0065654898   0.012215333    0.012719405    0.01206381     0.011862785    32768        
     25700   1.5679629      291.6411       1.0664426      292.70754      1.461636       0.025299089    0.030472428    0.064930004    0.012234117    0.014253163    32768        
     25800   1.5656071      291.20292      0              291.20292      1.4606266      0.0059245386   0.011099122    0.011181197    0.011253056    0.010863113    32768        
     25900   1.6186747      301.07349      0              301.07349      1.5101358      0.0061253558   0.011475336    0.011560193    0.011634488    0.011231328    32768        
     26000   1.6509938      307.08485      0              307.08485      1.5402878      0.0062476573   0.011704458    0.011791009    0.011866787    0.011455577    32768        
     26100   1.5560286      289.42131      0              289.42131      1.4678787      0.0058882917   0.01115423     0.01118278     0.011827104    0.010452805    32768        
     26200   1.4315148      266.26176      0.39078428     266.65254      1.3618498      0.01713593     0.02206735     0.051994166    0.010199634    0.0040082486   32768        
     26300   1.5479729      287.92296      0.004966148    287.92792      1.4839881      0.0072816579   0.012700494    0.012607622    0.013322481    0.012171377    32768        
     26400   1.6626532      309.25349      0              309.25349      1.587165       0.0062917784   0.012060672    0.012063843    0.011791424    0.012326748    32768        
     26500   1.5891214      295.57658      0.55907575     296.13566      1.5159412      0.021380392    0.026886322    0.0072601441   0.059971815    0.013427007    32768        
     26600   1.5294103      284.47032      0              284.47032      1.4428317      0.0057875636   0.010963901    0.01054829     0.011011886    0.011331526    32768        
     26700   1.5697118      291.9664       2.1994989      294.16589      1.4782958      0.03492418     0.040217496    0.0097973613   0.0081246084   0.10273052     32768        
     26800   1.828459       340.09337      0              340.09337      1.7344733      0.0069192173   0.013180049    0.013166499    0.012830115    0.013543534    32768        
     26900   1.6807961      312.62807      1.0992554      313.72733      1.5897945      0.026965772    0.032685991    0.064599479    0.014285201    0.019173293    32768        
     27000   1.5622659      290.58145      0.25667669     290.83813      1.4661197      0.014813128    0.020042097    0.030834222    0.020940594    0.0083514764   32768        
     27100   1.5114461      281.12897      4.0350781      285.16405      1.4468756      0.057200171    0.062475217    0.12142101     0.017575983    0.048428653    32768        
     27200   1.6218434      301.66287      2.4797794      304.14265      1.5523445      0.033705299    0.039364027    0.0090671792   0.0070661052   0.1019588      32768        
     27300   1.6898173      314.30602      0.09227644     314.3983       1.6206433      0.014283775    0.020204272    0.013882095    0.02944632     0.017284402    32768        
     27400   1.4806498      275.40087      0              275.40087      1.416107       0.0056030449   0.010760823    0.010532838    0.010875789    0.010873843    32768        
     27500   1.452049       270.08112      0              270.08112      1.388753       0.0054948144   0.010552963    0.010329382    0.010665708    0.010663799    32768        
     27600   1.5847597      294.76531      0              294.76531      1.5143921      0.0059970156   0.011507679    0.011277285    0.011611864    0.011633889    32768        
     27700   1.7055442      317.23122      0.45988417     317.6911       1.5577493      0.019720031    0.025103091    0.050669183    0.016248354    0.0083917346   32768        
     27800   1.6617354      309.08278      0              309.08278      1.5039759      0.0062883052   0.011428528    0.011268037    0.011676255    0.011341293    32768        
     27900   1.558918       289.95875      2.3084936      292.26724      1.401751       0.079070319    0.083822827    0.029597505    0.13911866     0.08275232     32768        
     28000   1.4518995      270.05331      0.0072182073   270.06053      1.2998171      0.0072004827   0.011583384    0.013747923    0.010891828    0.010110401    32768        
     28100   1.6262767      302.48746      0.4607597      302.94822      1.4478964      0.034283662    0.039131925    0.037684897    0.022942952    0.056767928    32768        
     28200   1.7536799      326.18446      0.051523702    326.23598      1.5715776      0.01465135     0.019957335    0.010222345    0.0094565334   0.040193125    32768        
     28300   1.705078       317.14451      0              317.14451      1.5272095      0.0064523216   0.011605077    0.011780785    0.011330842    0.011703604    32768        
     28400   1.5469664      287.73575      1.5582052      289.29395      1.4194389      0.059356735    0.064288878    0.039281067    0.044802131    0.10878343     32768        
     28500   1.5536459      288.97813      5.8753633      294.8535       1.4251776      0.056187942    0.061138416    0.046475724    0.095394904    0.041544619    32768        
     28600   1.7756125      330.26393      1.0533083      331.31724      1.6483888      0.024737591    0.030544258    0.063622429    0.0081719207   0.019838425    32768        
     28700   1.7094853      317.96428      0              317.96428      1.5871547      0.0064689997   0.012060593    0.012593015    0.010610913    0.012977851    32768        
     28800   1.5898835      295.71834      0              295.71834      1.4782931      0.006016405    0.011233368    0.011667555    0.0099420699   0.012090479    32768        
     28900   1.5798755      293.85684      0              293.85684      1.4698168      0.0059785327   0.011168957    0.012255845    0.009660835    0.011590191    32768        
     29000   1.6376633      304.60538      0              304.60538      1.523579       0.0061972123   0.011577489    0.012704133    0.010014204    0.012014131    32768        
     29100   1.7623534      327.79774      0              327.79774      1.6328327      0.0066690621   0.012407694    0.013425337    0.010799282    0.012998464    32768        
     29200   1.7476902      325.07037      0              325.07037      1.6143381      0.0066135736   0.012267157    0.013099438    0.010762165    0.012939867    32768        
     29300   1.5392899      286.30793      0.30078011     286.60871      1.4236642      0.016451936    0.021445235    0.0267821      0.022173519    0.015380086    32768        
     29400   1.5555491      289.33213      0              289.33213      1.4394405      0.0058864773   0.010938132    0.011700871    0.0095553151   0.011558209    32768        
     29500   1.6691447      310.46092      0.97586861     311.43679      1.5558642      0.027315787    0.032822264    0.022004537    0.043814617    0.032647638    32768        
     29600   1.7221761      320.32476      0              320.32476      1.578211       0.0065170239   0.011992631    0.012471973    0.010543192    0.012962728    32768        
     29700   1.4955548      278.17319      0              278.17319      1.3765939      0.0056594481   0.010460568    0.010823957    0.0092829197   0.011274827    32768        
     29800   1.4677904      273.00902      0.052640985    273.06166      1.3458252      0.0098492566   0.014521634    0.0099262138   0.022657205    0.010981483    32768        
     29900   1.5852325      294.85325      0              294.85325      1.4686491      0.0059988048   0.011160084    0.011705842    0.0097118287   0.012062582    32768        
     30000   1.670538       310.72007      0.18871023     310.90878      1.5528414      0.014004359    0.019482593    0.012557794    0.031754206    0.014135779    32768        
     30100   1.6592853      308.62707      0.044510292    308.67158      1.530967       0.0099202607   0.015274857    0.02309018     0.0096422524   0.013092137    32768        
     30200   1.521337       282.96869      0              282.96869      1.4037585      0.0057570127   0.010666988    0.011269793    0.0091919582   0.011539213    32768        
     30300   1.4624466      272.01507      0.48502643     272.5001       1.3661308      0.018132194    0.022979093    0.014048768    0.042428152    0.012460359    32768        
     30400   1.7218653      320.26695      0.02012904     320.28708      1.5958903      0.0089346241   0.014545751    0.016585304    0.013228611    0.013823337    32768        
     30500   1.649592       306.82411      0.83584462     307.65996      1.5778867      0.020696536    0.02644435     0.023184544    0.013623965    0.042524541    32768        
     30600   1.5090317      280.67989      0              280.67989      1.4540018      0.0057104471   0.01104878     0.011347236    0.0099781766   0.011820929    32768        
     30700   1.4901296      277.1641       0.071188284    277.23529      1.4354596      0.010452581    0.015721544    0.024384669    0.011112027    0.011667936    32768        
     30800   1.6225675      301.79755      0.47683996     302.27439      1.5652644      0.024208537    0.029962702    0.032651435    0.017128623    0.040108046    32768        
     30900   1.7434107      324.2744       0              324.2744       1.6877867      0.0065973795   0.012825283    0.013222266    0.011996208    0.013257376    32768        
     31000   1.4684133      273.12488      0.0017328115   273.12661      1.4218108      0.0061697199   0.011417145    0.011632467    0.010648096    0.011970873    32768        
     31100   1.4650698      272.50298      0              272.50298      1.4185775      0.0055440873   0.010779596    0.011152729    0.010076636    0.011109422    32768        
     31200   1.6253571      302.31642      4.7133371      307.02976      1.5363355      0.048639216    0.054162997    0.073833878    0.085782587    0.0028725263   32768        
     31300   1.673507       311.2723       0.63669969     311.909        1.584877       0.028783508    0.034493942    0.017517362    0.071201036    0.014763427    32768        
     31400   1.5321534      284.98053      0              284.98053      1.4533729      0.0057979437   0.011044002    0.011264026    0.010604569    0.011263411    32768        
     31500   1.4694362      273.31513      2.096242       275.41137      1.3893221      0.077698022    0.0826947      0.026734192    0.16440087     0.056949036    32768        
     31600   1.6073782      298.97234      0              298.97234      1.5399105      0.0060826079   0.01170159     0.011881677    0.010974458    0.012248637    32768        
     31700   1.6966206      315.57143      0              315.57143      1.6098935      0.0064203172   0.012233383    0.012351136    0.011600823    0.012748189    32768        
     31800   1.6060664      298.72835      0.50008067     299.22843      1.5267938      0.020916164    0.026440438    0.022588096    0.028590424    0.028142794    32768        
     31900   1.5184345      282.42882      0              282.42882      1.4419426      0.0057460292   0.010957145    0.010925257    0.010534759    0.011411418    32768        
     32000   1.5349542      285.50148      0              285.50148      1.4568634      0.0058085426   0.011070526    0.010979223    0.010655368    0.011576987    32768        
     32100   1.6912948      314.58082      0              314.58082      1.6026096      0.0064001632   0.012178033    0.012090484    0.011809847    0.012633769    32768        
     32200   1.6944995      315.17692      0.72458819     315.9015       1.6051364      0.027506096    0.033291039    0.021645974    0.023356167    0.054870977    32768        
     32300   1.4782589      274.95615      3.0069831      277.96313      1.3849475      0.032045614    0.036975663    0.094120003    0.0048339084   0.011973076    32768        
     32400   1.5429219      286.98347      0.31510824     287.29858      1.4287554      0.019191556    0.024209799    0.026959805    0.031280638    0.014388953    32768        
     32500   1.6487502      306.66755      0              306.66755      1.5397769      0.0062391672   0.011700575    0.011624189    0.011453668    0.012023868    32768        
     32600   1.6589784      308.56998      1.9565829      310.52656      1.5542687      0.032560519    0.038093343    0.081925191    0.017606581    0.014748257    32768        
     32700   1.4872671      276.63169      0              276.63169      1.4365999      0.0056280861   0.010916546    0.010518384    0.010744665    0.011486588    32768        
     32800   1.3649942      253.88892      0.56760541     254.45652      1.3215211      0.017457768    0.022334461    0.0022191095   0.016056631    0.048727642    32768        
     32900   1.567691       291.59053      1.0776373      292.66816      1.5286113      0.024496383    0.030179688    0.01415716     0.068825372    0.0075565308   32768        
     33000   1.6156852      300.51746      0              300.51746      1.5777399      0.0061140433   0.011989051    0.011565787    0.011828016    0.01257335     32768        
     33100   1.5250203      283.65378      0.45223549     284.10602      1.4739175      0.019440345    0.024869511    0.012042861    0.011032697    0.051532975    32768        
     33200   1.4726745      273.91746      0              273.91746      1.4203159      0.0055728651   0.010792806    0.010259193    0.010729744    0.01138948     32768        
     33300   1.5789288      293.68075      0.26394866     293.9447       1.5226555      0.014779816    0.020375338    0.026752534    0.018178326    0.016195154    32768        
     33400   1.6992351      316.05772      0.80248411     316.86021      1.6441307      0.025639207    0.031702543    0.014407296    0.014626946    0.066073388    32768        
     33500   1.5509808      288.48244      0.20675512     288.68919      1.503619       0.015053466    0.020610092    0.036459768    0.011388337    0.013982172    32768        
     33600   1.487873       276.74437      2.495671       279.24004      1.4295092      0.068209241    0.073441528    0.069823875    0.14732166     0.0031790441   32768        
     33700   1.5404587      286.52532      0              286.52532      1.4935507      0.0058293726   0.011349308    0.011097975    0.011397742    0.011552208    32768        
     33800   1.6176006      300.87371      0              300.87371      1.5612258      0.0061212913   0.011863563    0.011756219    0.011775707    0.012058762    32768        
     33900   1.5794306      293.7741       0.058234867    293.83233      1.5298206      0.01002254     0.015670609    0.019980648    0.0098768857   0.017154294    32768        
     34000   1.4370621      267.29355      0              267.29355      1.3773894      0.0054381013   0.010466613    0.010559188    0.010247225    0.010593426    32768        
     34100   1.4593158      271.43274      0              271.43274      1.3987191      0.0055223133   0.010628694    0.010722703    0.010405909    0.010757471    32768        
     34200   1.627795       302.76987      1.0528295      303.8227       1.5796381      0.027752735    0.033596341    0.046585044    0.013593191    0.040610789    32768        
     34300   1.5902814      295.79234      0              295.79234      1.5499277      0.0060179106   0.01177771     0.012169284    0.011591521    0.011572326    32768        
     34400   1.4977806      278.58719      0              278.58719      1.4597741      0.0056678708   0.011092644    0.011461441    0.010917285    0.010899206    32768        
     34500   1.4768358      274.69147      0              274.69147      1.4426535      0.0055886122   0.010962546    0.011289855    0.010822237    0.010775546    32768        
     34600   1.6576889      308.33013      0              308.33013      1.5993429      0.0062729926   0.01215321     0.012369788    0.011941448    0.012148394    32768        
     34700   1.7560869      326.63216      1.1710873      327.80325      1.6600548      0.033147406    0.03911661     0.014733811    0.043242988    0.05937303     32768        
     34800   1.5786783      293.63416      0              293.63416      1.4936903      0.0059740022   0.011350369    0.011871675    0.011070397    0.011109034    32768        
     34900   1.5494776      288.20284      0.54560026     288.74844      1.4677775      0.025783622    0.031073581   -0.0033056381   0.0077903947   0.088735987    32768        
     35000   1.5809612      294.05878      1.7819868      295.84077      1.5030231      0.039376019    0.044814666    0.059099706    0.017825768    0.057518522    32768        
     35100   1.6335618      303.84249      5.4342917      309.27678      1.546424       0.064960281    0.070529676    0.11474895     0.053514714    0.043325364    32768        
     35200   1.6059436      298.70551      0              298.70551      1.5307031      0.0060771791   0.011631625    0.011992778    0.011061486    0.01184061     32768        
     35300   1.4612657      271.79542      2.0169283      273.81235      1.3832484      0.030679519    0.035660961    0.050796681    0.03841588     0.017770323    32768        
     35400   1.4822181      275.69257      0              275.69257      1.4306854      0.0056089796   0.010871602    0.011189334    0.010166125    0.011259348    32768        
     35500   1.6438346      305.75323      0              305.75323      1.5866829      0.0062205653   0.012057008    0.012409384    0.011274607    0.012487032    32768        
     35600   1.6100877      299.47632      1.7141358      301.19046      1.55012        0.030766983    0.036453292    0.025874451    0.049588373    0.033897053    32768        
     35700   1.5352714      285.56047      0              285.56047      1.4848349      0.0058097427   0.011283078    0.011738082    0.010579118    0.011532033    32768        
     35800   1.5181714      282.37989      2.180137       284.56002      1.4646725      0.042451683    0.047836515    0.10402419    -0.0075068482   0.046992201    32768        
     35900   1.5862917      295.05026      0              295.05026      1.5250318      0.0060028129   0.011588529    0.012171595    0.01112924     0.011464752    32768        
     36000   1.7647909      328.25111      0              328.25111      1.7150579      0.0066782858   0.013032514    0.013567742    0.012379145    0.013150655    32768        
     36100   1.6591149      308.59537      0              308.59537      1.6044178      0.0062783889   0.012191774    0.012596211    0.011489872    0.012489239    32768        
     36200   1.5065705      280.22212      0.94070741     281.16283      1.4563253      0.078016574    0.083381877    0.069387989    0.14505161     0.035706033    32768        
     36300   1.5139866      281.60151      0              281.60151      1.4665132      0.0057291973   0.011143853    0.011398758    0.010560599    0.011472203    32768        
     36400   1.5960669      296.86845      2.1051412      298.97359      1.5440288      0.052856639    0.058549719    0.059833844    0.061519584    0.05429573     32768        
     36500   1.6502678      306.94982      0.046634663    306.99645      1.5927337      0.010007835    0.015865913    0.01763807     0.016099364    0.013860304    32768        
     36600   1.4753574      274.41648      0              274.41648      1.4237815      0.0055830176   0.01081914     0.010990024    0.010261509    0.011205889    32768        
     36700   1.4285057      265.70207      0              265.70207      1.3774471      0.0054057224   0.010467051    0.010599931    0.0099658746   0.010835347    32768        
     36800   1.5650104      291.09194      0              291.09194      1.5090727      0.0059222807   0.011467258    0.011612836    0.01091819     0.011870748    32768        
     36900   1.6034854      298.24828      0              298.24828      1.5470448      0.0060678769   0.011755803    0.011846089    0.011253826    0.012167495    32768        
     37000   1.5675419      291.56279      1.8424437      293.40523      1.4981967      0.040064393    0.045517145    0.051715258    0.018240851    0.066595326    32768        
     37100   1.5745541      292.86706      0.050952715    292.91802      1.46659        0.010838182    0.016024224    0.015859396    0.014430321    0.017782955    32768        
     37200   1.6057668      298.67263      0.11082099     298.78345      1.4925559      0.011946972    0.01721221     0.011819266    0.018656594    0.02116077     32768        
     37300   1.7356866      322.8377       0              322.8377       1.6173573      0.0065681499   0.012290099    0.011575904    0.012263127    0.013031265    32768        
     37400   1.6540655      307.65618      0.64029291     308.29648      1.5547685      0.02893451     0.034489723    0.022460835    0.026478128    0.054530207    32768        
     37500   1.4980441      278.63621      0.075173336    278.71138      1.4161336      0.011040193    0.01613235     0.010116599    0.027051838    0.011228612    32768        
     37600   1.5397656      286.39639      1.4338396      287.83023      1.4425973      0.030608035    0.035743405    0.087469137    0.0050681957   0.014692881    32768        
     37700   1.6313196      303.42545      0              303.42545      1.5702635      0.0061732065   0.011932239    0.011675087    0.011652981    0.012468648    32768        
     37800   1.6190901      301.15076      0.73141414     301.88218      1.5626829      0.023354643    0.02910235     0.010851146    0.020063732    0.056392172    32768        
     37900   1.5438458      287.15533      0              287.15533      1.5127647      0.0058421901   0.011495313    0.011369001    0.011090428    0.012026508    32768        
     38000   1.521632       283.02355      0              283.02355      1.4909981      0.005758129    0.011329911    0.011205417    0.010930852    0.011853463    32768        
     38100   1.5292289      284.43657      0              284.43657      1.4865023      0.0057868768   0.011295748    0.011356187    0.010772769    0.011758289    32768        
     38200   1.5556397      289.34898      0.19800635     289.54698      1.5184989      0.014376426    0.020028492    0.013620119    0.023694476    0.022770882    32768        
     38300   1.6211423      301.53247      0              301.53247      1.5712806      0.0061346937   0.011939968    0.011942241    0.011727757    0.012149906    32768        
     38400   1.5644177      290.98168      0              290.98168      1.5129205      0.0059200375   0.011496497    0.011534688    0.011307071    0.011647732    32768        
     38500   1.4334673      266.62493      0.0022141927   266.62714      1.3909866      0.0063846316   0.011530069    0.010595843    0.013253881    0.010740484    32768        
     38600   1.5287285      284.34349      0.015329631    284.35882      1.453347       0.0079161461   0.013174968    0.017703826    0.01075878     0.011062298    32768        
     38700   1.7093139      317.93238      1.0363438      318.96872      1.6116642      0.025365967    0.031144454    0.044991045    0.015762602    0.032679716    32768        
     38800   1.6511909      307.12152      0              307.12152      1.5596229      0.0062484032   0.011851383    0.011873248    0.011320601    0.012360299    32768        
     38900   1.5487883      288.07462      3.6247634      291.69939      1.4733509      0.059768325    0.065103243    0.075567466    0.050206078    0.069536186    32768        
     39000   1.5464488      287.63948      0              287.63948      1.472218       0.0058520402   0.011187203    0.011290963    0.010294352    0.011976295    32768        
     39100   1.6373451      304.54619      0.50442246     305.05061      1.5388087      0.019750669    0.025247879    0.04971558     0.010953931    0.015074126    32768        
     39200   1.7843216      331.88382      0              331.88382      1.6999757      0.0067521935   0.012917906    0.012862479    0.01173763     0.01415361     32768        
     39300   1.6194835      301.22393      0              301.22393      1.5429296      0.0061284165   0.011724532    0.011674225    0.010653291    0.01284608     32768        
     39400   1.5045002      279.83704      0.39722155     280.23426      1.4343653      0.019615209    0.024821476    0.010805367    0.019241778    0.044417283    32768        
     39500   1.5518496      288.64402      0.043464542    288.68749      1.4853754      0.0095474491   0.014962156    0.010464032    0.013130787    0.02129165     32768        
     39600   1.6449739      305.96514      0.025873135    305.99101      1.5753573      0.0092219329   0.014968003    0.01156768     0.020561916    0.012774412    32768        
     39700   1.6070286      298.90731      0              298.90731      1.5391315      0.0060812848   0.011695671    0.011623328    0.010730278    0.012733406    32768        
     39800   1.4121022      262.65102      0              262.65102      1.3539511      0.0053436486   0.010288508    0.010127083    0.0095223074   0.011216134    32768        
     39900   1.4769849      274.71919      0.18269828     274.90189      1.4166535      0.014305768    0.019481568    0.012255291    0.03169057     0.014498843    32768        
     40000   1.5847498      294.76345      1.1328555      295.89631      1.5255354      0.031928844    0.037524222    0.036168206    0.016346496    0.060057965    32768        
     40100   1.5797885      293.84066      0              293.84066      1.5300524      0.0059782035   0.01162668     0.011359431    0.010958161    0.012562448    32768        
     40200   1.528712       284.34043      0.018299431    284.35873      1.4780295      0.0077096655   0.013156109    0.010608142    0.013979749    0.014880436    32768        
     40300   1.4671241      272.88509      0              272.88509      1.418031       0.0055518613   0.010775443    0.01056261     0.010167128    0.011596592    32768        
     40400   1.4852046      276.24805      0              276.24805      1.4381344      0.0056202809   0.010928206    0.010703216    0.010389373    0.011692029    32768        
     40500   1.6423513      305.47734      0              305.47734      1.5912533      0.0062149524   0.012091738    0.011829564    0.011679267    0.012766384    32768        
     40600   1.6215838      301.61459      0              301.61459      1.5748816      0.0061363644   0.011967331    0.011661842    0.011558967    0.012681185    32768        
     40700   1.4584179      271.26573      0.026679895    271.29241      1.426294       0.0083672159   0.013686533    0.014978137    0.014923882    0.01115758     32768        
     40800   1.4710444      273.61426      0.32680538     273.94107      1.4295477      0.015724029    0.02102029     0.037663794    0.011128623    0.014268454    32768        
     40900   1.5466986      287.68594      0.0024178281   287.68835      1.5037285      0.0083964763   0.013970139    0.016364236    0.011243294    0.014302888    32768        
     41000   1.5853394      294.87312      1.2354211      296.10854      1.5156329      0.025978051    0.03149595     0.073254067    0.010030921    0.011202862    32768        
     41100   1.5621675      290.56316      0              290.56316      1.5027706      0.0059115226   0.011419369    0.010688972    0.011638736    0.011930399    32768        
     41200   1.5349218      285.49546      0              285.49546      1.4765609      0.00580842     0.011220204    0.010502546    0.011435745    0.011722322    32768        
     41300   1.5102502      280.90654      0              280.90654      1.4522523      0.0057150581   0.011035486    0.010170002    0.011123866    0.011812591    32768        
     41400   1.5454705      287.45752      0              287.45752      1.5082831      0.0058483382   0.011461258    0.010586561    0.011683328    0.012113885    32768        
     41500   1.6125238      299.92943      2.1905729      302.12         1.581194       0.04740021     0.053313429    0.016460159    0.11486276     0.028617366    32768        
     41600   1.5484317      288.0083       0              288.0083       1.514518       0.0058595438   0.011508636    0.010795384    0.01157506     0.012155464    32768        
     41700   1.4078523      261.86053      0              261.86053      1.3810014      0.0053275661   0.01049406     0.0097799962   0.010531944    0.01117024     32768        
     41800   1.4972133      278.48167      0              278.48167      1.4552325      0.005665724    0.011058133    0.010168361    0.011189992    0.011816046    32768        
     41900   1.6275321      302.72098      0              302.72098      1.5818973      0.0061588741   0.012020643    0.011053425    0.012163979    0.012844526    32768        
     42000   1.5829951      294.43709      0.71623527     295.15333      1.53711        0.020034287    0.025724259    0.012698644    0.052397754    0.012076379    32768        
     42100   1.520345       282.78416      0              282.78416      1.4665246      0.0057532586   0.01114394     0.010009686    0.011493576    0.011928558    32768        
     42200   1.4817171      275.59939      0              275.59939      1.4514006      0.0056070839   0.011029014    0.0099076661   0.011378101    0.011801276    32768        
     42300   1.618064       300.95991      0.020623299    300.98053      1.5805515      0.0089063013   0.014793673    0.010575666    0.02141158     0.012393772    32768        
     42400   1.6915851      314.63483      0              314.63483      1.6589507      0.006401262    0.012606162    0.011329705    0.013077835    0.013410946    32768        
     42500   1.5127346      281.36863      2.2801057      283.64874      1.4524371      0.033501612    0.038814044    0.034735844    0.051598302    0.030107985    32768        
     42600   1.4970474      278.45081      1.0066174      279.45743      1.4364193      0.024816408    0.030066485    0.057235575    0.0099849924   0.022978889    32768        
     42700   1.6028897      298.13748      0.25842644     298.3959       1.5168325      0.016040156    0.021500757    0.039793679    0.0094557923   0.0152528      32768        
     42800   1.6665582      309.97982      0.018078052    309.9979       1.5726546      0.0083175022   0.013961356    0.010821539    0.015157174    0.015905354    32768        
     42900   1.5574805      289.69137      0.036974392    289.72834      1.4704593      0.014323646    0.019603699    0.020760337    0.012486465    0.025564296    32768        
     43000   1.4146281      263.12084      0              263.12084      1.3367551      0.0053532071   0.010157838    0.0090985099   0.010808965    0.010566039    32768        
     43100   1.5429288      286.98476      0.0020061867   286.98677      1.4579945      0.0066030527   0.011843453    0.0099439348   0.013778039    0.011808386    32768        
     43200   1.6174074      300.83778      1.3353139      302.17309      1.5306959      0.038448394    0.043959404    0.04535012     0.071259062    0.015269031    32768        
[...]
   1789500   1.4520507      270.08144      1.8254395      271.90687      1.5865856      0.15507529     0.17644078     0.10915397     0.23589984     0.18426852     10063.214    
   1789600   1.2993987      241.68817      4.5598427      246.24801      1.4476729      0.23916492     0.2589742      0.2825107      0.35003916     0.14437275     10063.214    
   1789700   1.1784273      219.18747      3.8617831      223.04926      1.3642242      0.25605003     0.27528512     0.397661       0.31841333     0.10978102     10063.214    
   1789800   1.3150836      244.60555      4.730325       249.33588      1.498025       0.32037959     0.3412415      0.3226445      0.42812974     0.27295027     10063.214    
   1789900   1.4625891      272.04156      1.4359974      273.47756      1.5838043      0.15442587     0.17559269     0.18435351     0.23910343     0.10332113     10063.214    
   1790000   1.42452        264.96072      4.4357763      269.3965       1.5167196      0.34174879     0.36172478     0.32134708     0.22243045     0.54139681     10063.214    
   1790100   1.3938271      259.25185      1.5503502      260.8022       1.4676865      0.086466004    0.10560694     0.034733666    0.21157832     0.070508846    10063.214    
   1790200   1.4388754      267.63082      1.84677        269.47759      1.4802757      0.23801436     0.25691172     0.061913667    0.39673637     0.31208511     10063.214    
   1790300   1.6231097      301.8984       6.1365329      308.03493      1.6751734      0.27441799     0.29586766     0.32736131     0.184824       0.37541765     10063.214    
   1790400   1.5894096      295.63018      9.565868       305.19605      1.6356446      0.40366946     0.4245563      0.61844971     0.32672626     0.32849293     10063.214    
   1790500   1.3618203      253.29858      3.4083699      256.70695      1.4924927      0.28982085     0.30996998     0.47439155     0.10605856     0.34945982     10063.214    
   1790600   1.3888215      258.32079      0.38702663     258.70782      1.4718895      0.052920659    0.072227278    0.044794695    0.10774152     0.064145621    10063.214    
   1790700   1.4667487      272.81527      2.4333916      275.24866      1.5138286      0.18494749     0.2043316      0.27594886     0.16400222     0.17304374     10063.214    
   1790800   1.6267531      302.57607      3.1036068      305.67968      1.6174095      0.19627451     0.21625        0.044807131    0.15844668     0.44549617     10063.214    
   1790900   1.6441891      305.81917      4.2902204      310.10939      1.5891102      0.31735894     0.33641935     0.24537393     0.42732182     0.33656231     10063.214    
   1791000   1.300153       241.82846      10.692551      252.52101      1.3850274      0.50421717     0.52246709     0.19554783     0.54900617     0.82284727     10063.214    
   1791100   1.2682413      235.89288      7.9548281      243.84771      1.4312834      0.33058799     0.35037567     0.22068002     0.34480098     0.48564601     10063.214    
   1791200   1.398588       260.13737      2.1896363      262.32701      1.562235       0.21760068     0.23902243     0.28915604     0.24644834     0.1814629      10063.214    
   1791300   1.3635111      253.61307      11.375681      264.98875      1.5280151      0.48624757     0.50725481     0.1613238      0.38032236     0.98011827     10063.214    
   1791400   1.3345521      248.22669      2.4199227      250.64662      1.4926861      0.1670253      0.18751521     0.3450867      0.077014625    0.14044431     10063.214    
   1791500   1.3425728      249.71854      7.8933895      257.61193      1.46878        0.26900929     0.28880885     0.36225295     0.34067614     0.16349745     10063.214    
   1791600   1.391062       258.73753      2.3158248      261.05335      1.5030069      0.20904295     0.22909192     0.21745075     0.2070349      0.26279011     10063.214    
   1791700   1.4047315      261.28006      10.061338      271.3414       1.4959025      0.32540157     0.34510631     0.39597431     0.47140352     0.16794109     10063.214    
   1791800   1.4418584      268.18565      1.2337244      269.41938      1.5068483      0.18007724     0.19959534     0.076640094    0.26963468     0.25251125     10063.214    
   1791900   1.354196       251.88045      4.5469719      256.42742      1.4377183      0.36550327     0.38439103     0.3787235      0.52503385     0.24941575     10063.214    
   1792000   1.3450998      250.18857      9.2930428      259.48161      1.4373276      0.38386145     0.40285162     0.55126789     0.30183074     0.35545624     10063.214    
   1792100   1.4253457      265.1143       9.9629699      275.07727      1.5716567      0.36110881     0.38243397     0.28058985     0.14811584     0.71859621     10063.214    
   1792200   1.4178336      263.71705      5.4725169      269.18957      1.5875154      0.26702886     0.28883899     0.22951244     0.096487094    0.54051743     10063.214    
   1792300   1.2182306      226.59089      11.139798      237.73069      1.3913038      0.51139256     0.53080724     0.35147648     0.59864628     0.64229895     10063.214    
   1792400   1.2759218      237.32146      9.6513801      246.97284      1.4021307      0.42322649     0.44219819     0.22183538     0.42704449     0.67771469     10063.214    
   1792500   1.3406269      249.35659      11.088485      260.44508      1.4854303      0.40601139     0.42624691     0.15112902     0.80295515     0.32465657     10063.214    
   1792600   1.4229911      264.67634      5.0052829      269.68162      1.5491106      0.2211022      0.24189851     0.15176331     0.33101876     0.24291345     10063.214    
   1792700   1.402061       260.78334      0.66797458     261.45132      1.5185946      0.11824777     0.1385469      0.20226839     0.11537464     0.097997689    10063.214    
   1792800   1.2810653      238.27815      3.7283117      242.00646      1.3551075      0.38624775     0.40399255     0.12371151     0.51570533     0.5725608      10063.214    
   1792900   1.2927039      240.44293      1.4974816      241.94041      1.3754729      0.21941903     0.23752432     0.20619402     0.28964495     0.216734       10063.214    
   1793000   1.4711471      273.63336      3.665714       277.29908      1.5761541      0.30992087     0.33079294     0.42073618     0.37943407     0.19220858     10063.214    
   1793100   1.4369886      267.27989      3.359972       270.63986      1.5448841      0.24654885     0.2670681      0.44644977     0.18138918     0.17336534     10063.214    
   1793200   1.2972549      241.28941      1.7652594      243.05467      1.4528073      0.2007693      0.22073205     0.24968389     0.21206719     0.20044506     10063.214    
   1793300   1.2709247      236.39199      7.1511039      243.5431       1.4326425      0.36192692     0.38171516     0.57091662     0.28664601     0.28758285     10063.214    
   1793400   1.5013355      279.24841      7.5254761      286.77388      1.6013711      0.43613219     0.45725624     0.26714398     0.55217791     0.55244683     10063.214    
   1793500   1.6095184      299.37043      4.2124157      303.58284      1.633068       0.20455299     0.22512829     0.30805008     0.16219029     0.2051445      10063.214    
   1793600   1.4913723      277.39525      4.1270406      281.52229      1.4829282      0.25455955     0.27287566     0.3012788      0.35640379     0.16094438     10063.214    
   1793700   1.4880804      276.78295      3.5999271      280.38288      1.4737057      0.24508397     0.26321245     0.27730002     0.1442001      0.36813722     10063.214    
   1793800   1.5420087      286.81362      2.311284       289.1249       1.5146765      0.16031018     0.17878791     0.094714292    0.19324834     0.24840111     10063.214    
   1793900   1.6131828      300.052        7.237977       307.28997      1.5375404      0.45916553     0.47733199     0.7437038      0.16131681     0.52697535     10063.214    
   1794000   1.6018336      297.94105      11.008514      308.94956      1.4908779      0.44133472     0.45848642     0.30345705     0.86156635     0.21043585     10063.214    
   1794100   1.477335       274.78432      4.3926855      279.177        1.4013984      0.26187393     0.27834567     0.14925205     0.35647301     0.32931195     10063.214    
   1794200   1.5445917      287.29406      4.6302238      291.92429      1.4329727      0.25948868     0.27591294     0.19544695     0.48636676     0.14592512     10063.214    
   1794300   1.6721971      311.02866      9.635024       320.66369      1.5865202      0.49175511     0.51040632     0.76467399     0.32054514     0.44599981     10063.214    
   1794400   1.7073848      317.57357      5.359745       322.93332      1.5720712      0.26507511     0.28293521     0.2282478      0.34837829     0.27217952     10063.214    
   1794500   1.6164422      300.65826      10.267873      310.92613      1.4688138      0.52762362     0.54404937     0.61123062     0.50245396     0.51846353     10063.214    
   1794600   1.577545       293.42337      4.1598369      297.5832       1.4788404      0.29696215     0.31411529     0.25684428     0.35477316     0.33072842     10063.214    
   1794700   1.5692478      291.8801       0.44642448     292.32652      1.509295       0.092511166    0.1105201      0.091762528    0.11991442     0.11988334     10063.214    
   1794800   1.6003239      297.66024      9.5941947      307.25444      1.5011506      0.46419096     0.48161545     0.77818328     0.34567494     0.32098813     10063.214    
   1794900   1.64043        305.11998      6.4272513      311.54723      1.5402863      0.29815604     0.31605469     0.53674366     0.31203045     0.099389964    10063.214    
   1795000   1.6349723      304.10484      8.8672447      312.97208      1.5132122      0.28000886     0.29730485     0.11307814     0.27821984     0.50061658     10063.214    
   1795100   1.5463217      287.61583      1.6296218      289.24545      1.4535054      0.14037526     0.15728625     0.15940318     0.11307031     0.19938527     10063.214    
   1795200   1.5404192      286.51798      4.3784231      290.8964       1.445088       0.19958733     0.21636277     0.17479023     0.35108162     0.12321648     10063.214    
   1795300   1.5981693      297.25949      5.1019005      302.36139      1.580523       0.28874082     0.30815582     0.18776325     0.24221179     0.49449242     10063.214    
   1795400   1.6579651      308.3815       3.4226574      311.80416      1.6237108      0.27695014     0.29669694     0.32427242     0.41017465     0.15564376     10063.214    
   1795500   1.4840362      276.03074      9.6372023      285.66794      1.4120771      0.47483623     0.49148962     0.61388962     0.2636598      0.59691946     10063.214    
   1795600   1.5067942      280.26372      3.1052872      283.369        1.429008       0.28056006     0.29735197     0.28417373     0.1921449      0.41573727     10063.214    
   1795700   1.5292339      284.43751      6.1586858      290.59619      1.509494       0.37825585     0.39676276     0.37062627     0.32311039     0.49655164     10063.214    
   1795800   1.5673209      291.52168      3.629647       295.15133      1.571111       0.2398724      0.25943463     0.22931735     0.36013066     0.18885587     10063.214    
   1795900   1.4562239      270.85764      10.052678      280.91032      1.4700105      0.54702769     0.56545728     0.6611846      0.446513       0.58867423     10063.214    
   1796000   1.3191665      245.36497      2.7564149      248.12138      1.3332039      0.21244561     0.22917895     0.38308745     0.12002141     0.18442799     10063.214    
   1796100   1.396873       259.81839      7.4821024      267.30049      1.4303965      0.39370812     0.41188884     0.42971994     0.51775368     0.2881929      10063.214    
   1796200   1.4519222      270.05752      2.6502123      272.70774      1.5476049      0.27242335     0.2928259      0.52202788     0.17896034     0.17748948     10063.214    
   1796300   1.4932639      277.74709      7.030995       284.77808      1.5031767      0.50638973     0.52518355     0.19657994     0.55360256     0.82536815     10063.214    
   1796400   1.4457047      268.90107      1.1929645      270.09404      1.457987       0.12786074     0.14612244     0.11309363     0.17787553     0.14739816     10063.214    
   1796500   1.447944       269.31759      1.0177193      270.3353       1.4582469      0.14965457     0.1678951      0.22698258     0.11269137     0.16401137     10063.214    
   1796600   1.460824       271.71326      11.554935      283.26819      1.5804441      0.49978545     0.52089088     0.40996455     0.48551679     0.66719129     10063.214    
   1796700   1.4661434      272.70268      11.974943      284.67762      1.60339        0.54932705     0.5709347      0.57940487     0.45009258     0.68330665     10063.214    
   1796800   1.3275554      246.92531      4.9399895      251.8653       1.443151       0.35215169     0.37150214     0.19008195     0.35317815     0.57124632     10063.214    
   1796900   1.3546002      251.95564      2.7432592      254.6989       1.4469728      0.16513323     0.18424499     0.22213296     0.10920163     0.22140039     10063.214    
   1797000   1.4535154      270.35387      3.3524148      273.70628      1.5167672      0.24263046     0.26225034     0.29217612     0.21414054     0.28043437     10063.214    
   1797100   1.4971319      278.46654      11.187015      289.65356      1.5403151      0.59653515     0.61620025     0.94251664     0.18994885     0.71613525     10063.214    
   1797200   1.3592939      252.82867      5.8119685      258.64064      1.4715036      0.3191897      0.33885061     0.34586097     0.25074622     0.41994465     10063.214    
   1797300   1.2173619      226.42931      7.4187884      233.8481       1.3320643      0.32417497     0.34213455     0.48129972     0.33212987     0.21297406     10063.214    
   1797400   1.2842471      238.86996      4.3435072      243.21347      1.4653043      0.43822684     0.4586591      0.42980858     0.62909551     0.3170732      10063.214    
   1797500   1.384212       257.46343      3.0793012      260.54273      1.5634961      0.26338011     0.2850102      0.2221315      0.21104404     0.42185507     10063.214    
   1797600   1.4107531      262.40007      5.6964844      268.09656      1.5183487      0.23966044     0.25984638     0.1357063      0.43232639     0.21150645     10063.214    
   1797700   1.3819867      257.04952      2.5092778      259.5588       1.454374       0.19343383     0.21239127     0.29443166     0.20252126     0.14022089     10063.214    
   1797800   1.3594766      252.86265      3.864006       256.72666      1.430917       0.22660126     0.24525566     0.086468528    0.27947147     0.369827       10063.214    
   1797900   1.5250203      283.65377      4.2350147      287.88879      1.5930486      0.28029404     0.30092031     0.31013165     0.25762847     0.33500082     10063.214    
   1798000   1.5407891      286.58678      3.7546965      290.34148      1.6166802      0.24526266     0.26627936     0.24691895     0.11504395     0.43687518     10063.214    
   1798100   1.3608533      253.11871      2.0913203      255.21003      1.4613567      0.18398237     0.20337299     0.18609057     0.21018974     0.21383866     10063.214    
   1798200   1.3366261      248.61246      3.8696004      252.48206      1.442564       0.26735533     0.28657949     0.17105594     0.50623865     0.18244388     10063.214    
   1798300   1.4419585      268.20429      2.9027691      271.10706      1.5180165      0.2236182      0.24341141     0.30062768     0.16766946     0.26193708     10063.214    
   1798400   1.4268363      265.39156      5.5227104      270.91427      1.5420107      0.40007108     0.42064432     0.70128235     0.32543459     0.23521602     10063.214    
   1798500   1.4336512      266.65912      2.2260793      268.88519      1.5117747      0.15166278     0.17140391     0.11097482     0.290766       0.1124709      10063.214    
   1798600   1.456862       270.97633      12.026387      283.00272      1.4669191      0.5526069      0.57095213     0.63560898     0.72092083     0.35632657     10063.214    
   1798700   1.4494211      269.59233      6.334324       275.92665      1.4933935      0.28450473     0.30359672     0.23608176     0.14216433     0.53254409     10063.214    
   1798800   1.4482059      269.3663       3.3049034      272.6712       1.5236148      0.18340359     0.20325833     0.10495796     0.17137465     0.33344239     10063.214    
   1798900   1.4230406      264.68555      2.5738476      267.25939      1.5206656      0.17080846     0.19090033     0.2760728      0.14741734     0.14921084     10063.214    
   1799000   1.3170898      244.97871      3.188403       248.16711      1.4474117      0.21328339     0.23286823     0.22257152     0.28130812     0.19472504     10063.214    
   1799100   1.3663983      254.15008      1.5816627      255.73175      1.4180137      0.11315314     0.13140298     0.11741987     0.17112312     0.10566596     10063.214    
   1799200   1.456991       271.00033      5.1014985      276.10183      1.5534615      0.25050106     0.27098607     0.15282854     0.3809671      0.27916255     10063.214    
   1799300   1.5239743      283.45922      8.8397545      292.29897      1.6042432      0.45010546     0.47102161     0.61150196     0.37890304     0.42265984     10063.214    
   1799400   1.4162832      263.42867      13.028891      276.45757      1.4583299      0.51393411     0.53256682     1.1745495      0.24186689     0.18128411     10063.214    
   1799500   1.3418475      249.58363      0              249.58363      1.4526866      0.016534388    0.035944678    0.036812731    0.033759339    0.037261962    10063.214    
   1799600   1.3899773      258.53577      12.207596      270.74337      1.4601949      0.74113772     0.76014073     0.76453422     0.44987656     1.0660114      10063.214    
   1799700   1.4509414      269.87509      6.0529599      275.92805      1.5287163      0.38338488     0.40333215     0.11077274     0.38171765     0.71750606     10063.214    
   1799800   1.3886063      258.28077      15.857345      274.13812      1.4903956      0.62859166     0.64835884     0.64623928     0.72943967     0.56939757     10063.214    
   1799900   1.2906         240.0516       3.7356712      243.78727      1.3935143      0.27544126     0.29401889     0.25976614     0.27239584     0.34989467     10063.214    
   1800000   1.2634946      235.00999      5.1784469      240.18844      1.3629522      0.38313793     0.40418032     0.36702114     0.30641314     0.53910669     8682.555     
Loop time of 2019.21 on 4 procs for 100000 steps with 125 atoms

Performance: 427.890 tau/day, 49.524 timesteps/s, 6.191 katom-step/s
97.8% CPU use with 4 MPI tasks x 1 OpenMP threads

MPI task timing breakdown:
Section |  min time  |  avg time  |  max time  |%varavg| %total
---------------------------------------------------------------
Pair    | 1713.4     | 1859       | 1963.3     | 215.8 | 92.07
Neigh   | 0.0027524  | 0.0028542  | 0.0030062  |   0.2 |  0.00
Comm    | 54.66      | 158.91     | 304.46     | 737.9 |  7.87
Output  | 0.12539    | 0.15124    | 0.16771    |   4.1 |  0.01
Modify  | 0.83146    | 0.87078    | 0.88968    |   2.5 |  0.04
Other   |            | 0.2512     |            |       |  0.01

Nlocal:          31.25 ave          33 max          29 min
Histogram: 1 0 1 0 0 0 0 0 0 2
Nghost:         337.75 ave         343 max         330 min
Histogram: 1 0 0 0 0 0 1 1 0 1
Neighs:            487 ave         560 max         420 min
Histogram: 1 0 0 0 2 0 0 0 0 1

Total # of neighbors = 1948
Ave neighs/atom = 15.584
Neighbor list builds = 77
Dangerous builds = 0
next i
jump SELF loop_start
Total wall time: 6:17:48
