LAMMPS data file for polygons
4 atoms
4 bodies
1 atom types
0 6 xlo xhi
0 6 ylo yhi
-0.5 0.5 zlo zhi

Atoms

1 1 1 1 1 1 0
2 1 1 1 4 4 0
3 1 1 1 1 4 0
4 1 1 1 4 1 0

Bodies

1 1 19
4
20 20 0.16667 0 0 0
-0.5 -0.5 0
-0.5 0.5 0
0.5 0.5 0
0.5 -0.5 0
0.3
2 1 19
4
20 20 0.16667 0 0 0
-0.5 -0.5 0
-0.5 0.5 0
0.5 0.5 0
0.5 -0.5 0
0.3
3 1 19
4
20 20 0.16667 0 0 0
-0.5 -0.5 0
-0.5 0.5 0
0.5 0.5 0
0.5 -0.5 0
0.3
4 1 19
4
20 20 0.16667 0 0 0
-0.5 -0.5 0
-0.5 0.5 0
0.5 0.5 0
0.5 -0.5 0
0.3