LAMMPS (2 Aug 2023 - Update 1)
OMP_NUM_THREADS environment is not set. Defaulting to 1 thread. (src/comm.cpp:98)
  using 1 OpenMP thread(s) per MPI task
# 2d rounded polygon bodies

variable    r     index 7
variable    steps index 200000
variable    T     index 1
variable    P     index 0.1

include ./seed.lammps
variable    seed  index 18928

units       lj
dimension   2

atom_style  body rounded/polygon 1 6
atom_modify map array
read_data   data.squares
Reading data file ...
  orthogonal box = (0 0 -0.5) to (6 6 0.5)
  2 by 2 by 1 MPI processor grid
  reading atoms ...
  4 atoms
  4 bodies
  read_data CPU = 0.001 seconds

replicate   $r $r 1
replicate   7 $r 1
replicate   7 7 1
Replication is creating a 7x7x1 = 49 times larger system...
  orthogonal box = (0 0 -0.5) to (42 42 0.5)
  2 by 2 by 1 MPI processor grid
  196 atoms
  replicate CPU = 0.001 seconds
change_box all x final -21.0 21.0 y final -21.0 21.0
Changing box ...
  orthogonal box = (-21 0 -0.5) to (21 42 0.5)
  orthogonal box = (-21 -21 -0.5) to (21 21 0.5)

variable cut_inner  equal 0.0
variable k_n        equal 300
variable k_na       equal 0
variable c_n        equal 0
variable c_t        equal 0
variable mu         equal 0.0
variable delta_ua   equal 1.0

pair_style body/rounded/polygon ${c_n} ${c_t} ${mu} ${delta_ua} ${cut_inner}
pair_style body/rounded/polygon 0 ${c_t} ${mu} ${delta_ua} ${cut_inner}
pair_style body/rounded/polygon 0 0 ${mu} ${delta_ua} ${cut_inner}
pair_style body/rounded/polygon 0 0 0 ${delta_ua} ${cut_inner}
pair_style body/rounded/polygon 0 0 0 1 ${cut_inner}
pair_style body/rounded/polygon 0 0 0 1 0
pair_coeff * * ${k_n} ${k_na}
pair_coeff * * 300 ${k_na}
pair_coeff * * 300 0

comm_modify vel yes cutoff 11

neighbor     1 bin
neigh_modify every 1 delay 0 check yes

timestep     0.0001

fix          2 all enforce2d

# minimize 0.0 0 1000 100000

compute 10 all property/atom x y z quatw quati quatj quatk
dump mydump0 all custom 100 dump.quat id type c_10[1] c_10[2] c_10[3] c_10[4] c_10[5] c_10[6] c_10[7]
compute myRDF all rdf 1000 cutoff 10.0
compute 1 all temp/body
compute 1p all pressure 1
velocity    all create $T ${seed} dist gaussian mom yes rot yes
velocity    all create 1 ${seed} dist gaussian mom yes rot yes
velocity    all create 1 18928 dist gaussian mom yes rot yes

thermo_style custom step temp ke pe etotal c_1 press c_1p vol
thermo       100
thermo_modify norm no


fix          1 all npt/body temp $T $T 0.01 x 1 1 0.1 y 1 1 0.1 couple xy
fix          1 all npt/body temp 1 $T 0.01 x 1 1 0.1 y 1 1 0.1 couple xy
fix          1 all npt/body temp 1 1 0.01 x 1 1 0.1 y 1 1 0.1 couple xy
run          ${steps}
run          200000
Generated 0 of 0 mixed pair_coeff terms from geometric mixing rule
Neighbor list info ...
  update: every = 1 steps, delay = 0 steps, check = yes
  max neighbors/atom: 2000, page size: 100000
  master list distance cutoff = 2.4142136
  ghost atom cutoff = 11
  binsize = 1.2071068, bins = 35 35 1
  2 neighbor lists, perpetual/occasional/extra = 1 1 0
  (1) pair body/rounded/polygon, perpetual
      attributes: half, newton on
      pair build: half/bin/atomonly/newton
      stencil: half/bin/2d
      bin: standard
  (2) compute rdf, occasional
      attributes: half, newton on, cut 11
      pair build: half/bin/atomonly/newton
      stencil: half/bin/2d
      bin: standard
Per MPI rank memory allocation (min/avg/max) = 6.118 | 6.118 | 6.118 Mbytes
   Step          Temp          KinEng         PotEng         TotEng          c_1           Press           c_1p          Volume    
         0   1              195            0              195            0.66552901     0.11054422     0.11054422     1764         
       100   1.2943016      252.38881      0              252.38881      0.86139527     0.15408526     0.15408526     1637.9816    
       200   1.6593159      323.5666       0              323.5666       1.1043229      0.22370842     0.22370842     1446.3765    
       300   1.6970647      330.92761      0              330.92761      1.1294458      0.25370018     0.25370018     1304.4043    
       400   1.562152       304.61964      0              304.61964      1.0396575      0.25696501     0.25696501     1185.4518    
       500   1.4981858      292.14623      0              292.14623      0.9970861      0.26718212     0.26718212     1093.4348    
       600   1.4823911      289.06626      0              289.06626      0.98657426     0.28421012     0.28421012     1017.0864    
       700   1.4951551      291.55525      0              291.55525      0.99506911     0.3065361      0.3065361      951.12861    
       800   1.4901989      290.58879      0              290.58879      0.9917706      0.32519911     0.32519911     893.5719     
       900   1.4489698      282.54912      0              282.54912      0.96433146     0.33528744     0.33528744     842.70714    
      1000   1.413831       275.69704      0              275.69704      0.94094553     0.34587224     0.34587224     797.1066     
      1100   1.3931504      271.66433      0              271.66433      0.92718202     0.35936425     0.35936425     755.95815    
      1200   1.4704651      286.74069      0              286.74069      0.97863717     0.39889206     0.39889206     718.84282    
      1300   1.6445018      320.67784      0              320.67784      1.0944636      0.46741033     0.46741033     686.0735     
      1400   1.5648613      305.14795      0.18906507     305.33702      1.0414606      0.48451701     0.48451701     657.58253    
      1500   1.4535977      283.45155      4.2145662      287.66611      0.96742333     0.5438918      0.54389732     632.03615    
      1600   1.494951       291.51545      9.9807315      301.49618      0.99513736     0.65428055     0.65437864     609.68341    
      1700   1.5424833      300.78425      19.261231      320.04548      1.0277421      1.0030345      1.0036154      592.45427    
      1800   1.463748       285.43085      31.478613      316.90947      0.97740014     1.3145311      1.3161501      585.16449    
      1900   1.3427633      261.83885      33.661478      295.50033      0.89909772     1.363586       1.3662953      589.38097    
      2000   1.4672501      286.11377      24.665243      310.77901      0.98584006     1.2954882      1.3000389      601.52455    
      2100   1.5412447      300.54272      13.975148      314.51787      1.0403846      1.0952618      1.1022195      616.57196    
      2200   1.4656394      285.79968      10.447178      296.24686      0.99457599     0.96680455     0.97573478     628.32435    
      2300   1.3916127      271.36447      12.486333      283.8508       0.94918273     1.0048415      1.0154672      634.8853     
      2400   1.5028532      293.05638      16.605646      309.66203      1.0303235      1.1317599      1.1455611      639.68609    
      2500   1.545981       301.46629      19.151696      320.61799      1.0669837      1.212044       1.2292729      647.74614    
      2600   1.3899117      271.03279      17.491488      288.52428      0.96849576     1.1026122      1.1219005      660.31813    
      2700   1.3031441      254.11309      15.800634      269.91373      0.91653153     0.97762149     0.99907763     672.56491    
      2800   1.5048412      293.44403      15.899352      309.34338      1.064685       0.98919957     1.0163821      680.90286    
      2900   1.4759893      287.81792      15.996942      303.81486      1.0475239      0.99233501     1.020148       686.96521    
      3000   1.3431053      261.90553      16.004535      277.91006      0.95524981     0.96047723     0.98647539     691.68985    
      3100   1.3242979      258.23809      16.094575      274.33267      0.94512674     0.98387194     1.0107693      694.64219    
      3200   1.5128225      295.00039      15.962901      310.96329      1.0847292      1.0448605      1.0775875      697.44363    
      3300   1.4875074      290.06393      15.475425      305.53936      1.0720166      1.0112489      1.0454731      702.33721    
      3400   1.3610846      265.4115       16.21938       281.63088      0.98568983     0.97116213     1.0042181      707.7575     
      3500   1.3169531      256.80586      19.62673       276.43259      0.95769012     0.99443717     1.0278525      712.16916    
      3600   1.3740048      267.93094      23.487275      291.41821      1.003787       1.0316305      1.0681546      716.74821    
      3700   1.448666       282.48988      24.639244      307.12912      1.064457       1.0600338      1.1006668      723.45323    
      3800   1.3587387      264.95405      22.221528      287.17558      1.0054378      0.96582314     1.0062716      732.76628    
      3900   1.152239       224.68661      19.487536      244.17414      0.85876051     0.8660896      0.9024908      739.81676    
      4000   1.2675712      247.17639      20.143209      267.3196       0.94992333     0.96260695     1.0046223      741.42327    
      4100   1.3708036      267.3067       22.196026      289.50273      1.032956       1.094118       1.1416719      743.35463    
      4200   1.3343789      260.20388      20.641455      280.84534      1.0144275      1.0600551      1.1093318      751.33648    
      4300   1.2484009      243.43817      16.711261      260.14943      0.95911328     0.92719146     0.97646986     762.64682    
      4400   1.2501251      243.7744       15.893428      259.66783      0.96685413     0.87310129     0.92438593     770.48126    
      4500   1.3895905      270.97014      18.819405      289.78955      1.076747       0.94072376     0.99829574     773.23579    
      4600   1.343985       262.07708      21.379501      283.45658      1.0432161      0.98501443     1.0412343      775.26392    
      4700   1.2020685      234.40335      21.335597      255.73895      0.93591908     0.95280263     1.0039309      778.84435    
      4800   1.212714       236.47923      19.709892      256.18912      0.94873075     0.91224976     0.96531598     782.02085    
      4900   1.3902881      271.10618      19.216101      290.32229      1.0945703      0.93944933     1.0027771      783.27317    
      5000   1.3805513      269.20751      19.395137      288.60264      1.0952205      0.89857484     0.96450591     784.03232    
      5100   1.2638542      246.45157      20.278392      266.72996      1.0106304      0.86589803     0.92933471     782.8773     
      5200   1.175134       229.15114      22.969186      252.12032      0.94581989     0.85939178     0.92104912     778.07588    
      5300   1.2150402      236.93284      26.031456      262.9643       0.98326137     0.9172374      0.98366992     770.14598    
      5400   1.3349996      260.32492      26.577808      286.90273      1.0850448      0.98752865     1.0630314      762.79586    
      5500   1.2651421      246.70271      24.844659      271.54737      1.0311497      0.99388193     1.0668157      759.92428    
      5600   1.1238948      219.15949      22.562813      241.7223       0.91940631     0.92702536     0.99305001     760.72437    
      5700   1.1789308      229.89151      20.60731       250.49882      0.9722809      0.91579608     0.9880187      761.35137    
      5800   1.2518552      244.11177      18.765659      262.87743      1.0418181      0.94442265     1.0246876      761.73837    
      5900   1.2231394      238.51218      17.516453      256.02863      1.0219514      0.91059687     0.99041307     763.24845    
      6000   1.078782       210.36249      16.788858      227.15135      0.90153377     0.86184227     0.93224342     764.00604    
      6100   1.0205195      199.0013       17.928371      216.92967      0.84981376     0.88053688     0.94620361     761.33108    
      6200   1.219315       237.76642      20.718841      258.48526      1.0095796      0.99506203     1.0717364      756.97286    
      6300   1.2436749      242.51661      21.543461      264.06007      1.0268136      0.93983743     1.0170022      756.04194    
      6400   1.2001402      234.02733      21.082653      255.10998      0.9900587      0.85325729     0.9274041      756.06574    
      6500   1.1682081      227.80058      21.519283      249.31986      0.9618945      0.87400531     0.94578414     752.79187    
      6600   1.2123848      236.41504      24.109713      260.52475      0.99604459     0.99322532     1.0673789      747.44925    
      6700   1.313946       256.21948      26.936856      283.15633      1.0796259      1.0570585      1.1376347      746.01299    
      6800   1.2624587      246.17944      25.933462      272.1129       1.0408482      0.98538457     1.0635913      751.71354    
      6900   1.0872164      212.0072       21.903555      233.91076      0.90152228     0.83888251     0.90745237     760.37536    
      7000   1.1310786      220.56032      18.955609      239.51593      0.94369373     0.80066317     0.87388173     764.0405     
      7100   1.2207448      238.04523      18.731442      256.77667      1.0259197      0.86285695     0.94507476     760.77503    
      7200   1.2139227      236.71493      20.129908      256.84484      1.028162       0.95769473     1.0432061      754.7126     
      7300   1.1581528      225.8398       20.371181      246.21099      0.9856264      1.0001871      1.0839884      751.16618    
      7400   1.1131438      217.06303      17.178828      234.24186      0.94783646     0.927688       1.0083496      751.94453    
      7500   1.1348369      221.2932       14.276078      235.56928      0.96369063     0.85586132     0.93691859     753.39521    
      7600   1.2658566      246.84203      14.733197      261.57523      1.0719393      0.8717312      0.96116559     751.79341    
      7700   1.2511632      243.97681      16.978283      260.9551       1.0578083      0.96422386     1.0523616      748.38593    
      7800   1.1116461      216.77099      17.73433       234.50532      0.94257418     0.96710476     1.0465714      747.52435    
      7900   1.1087821      216.21252      16.152674      232.36519      0.94881303     0.91893995     1.0013962      749.36378    
      8000   1.1797415      230.04958      13.31827       243.36785      1.0224074      0.83963728     0.93215966     751.34033    
      8100   1.1803733      230.1728       12.164128      242.33693      1.0341948      0.78329188     0.88045702     749.71598    
      8200   1.149728       224.19697      16.314629      240.5116       1.0085551      0.82669661     0.92283273     741.7574     
      8300   1.131636       220.66901      23.882966      244.55198      0.98688444     1.0010478      1.0948657      730.01144    
      8400   1.131824       220.70568      26.736337      247.44202      0.98293455     1.1245374      1.2175971      723.12884    
      8500   1.130241       220.39699      18.901636      239.29863      0.98347993     0.98915851     1.0824016      726.73111    
      8600   1.1428032      222.84662      10.247073      233.0937       0.99794153     0.77914768     0.87379047     734.87101    
      8700   1.1720987      228.55925      8.5726338      237.13188      1.0227141      0.71284281     0.8092914      737.13852    
      8800   1.1716815      228.47789      12.839899      241.31779      1.0192186      0.84808884     0.94419937     729.92183    
      8900   1.0937482      213.2809       22.524233      235.80513      0.94929034     1.034836       1.1249631      719.6634     
      9000   1.0590324      206.51133      29.456076      235.9674       0.92044422     1.1207511      1.2090568      715.45624    
      9100   1.1997596      233.95312      27.171947      261.12507      1.0459503      1.0575697      1.1580433      721.68585    
      9200   1.2065846      235.284        18.833068      254.11707      1.0550528      0.85782338     0.95814324     736.1102     
      9300   1.1212122      218.63639      13.388038      232.02442      0.97884193     0.68599491     0.77703711     748.711      
      9400   1.1071141      215.88726      13.258556      229.14581      0.96075968     0.68644451     0.77397991     749.58627    
      9500   1.2644913      246.5758       19.235587      265.81138      1.0890239      0.8727806      0.97094411     738.64723    
      9600   1.3453082      262.33511      29.763369      292.09847      1.1540023      1.1898479      1.2940293      727.45771    
      9700   1.1597753      226.15618      31.012612      257.16879      1.0004517      1.1617841      1.2534632      730.5505     
      9800   1.0893986      212.43273      21.550269      233.983        0.95382844     0.89627487     0.98612175     746.14733    
      9900   1.125423       219.45749      14.061344      233.51883      1.0011215      0.72080498     0.8178978      760.82979    
     10000   1.1951401      233.05233      13.109325      246.16165      1.0724338      0.72721679     0.83328202     765.29115    
     10100   1.1185872      218.12451      17.640049      235.76456      1.0050901      0.82485003     0.92526816     760.48893    
     10200   0.98618972     192.307        23.701858      216.00885      0.88362098     0.9500395      1.0385886      752.05674    
     10300   1.0720521      209.05017      26.556194      235.60636      0.95850984     1.1081096      1.2042226      746.96618    
     10400   1.1407721      222.45057      21.524793      243.97536      1.0237798      1.0259478      1.1289991      752.21701    
     10500   1.1215082      218.6941       15.064376      233.75848      1.0128101      0.80968449     0.91190796     763.61396    
     10600   1.0705192      208.75124      13.647392      222.39863      0.96998198     0.70436252     0.80237467     769.83798    
     10700   1.0302314      200.89513      16.737011      217.63214      0.93206599     0.74478893     0.83916754     765.00603    
     10800   1.114301       217.28869      21.481557      238.77025      1.0057375      0.91981995     1.0226891      752.33865    
     10900   1.2182549      237.55971      22.849139      260.40885      1.1009467      1.0503991      1.1649485      742.19197    
     11000   1.1046547      215.40766      18.08384       233.4915       1.0037738      0.92483244     1.0310927      740.61598    
     11100   1.0405091      202.89927      14.761326      217.6606       0.95022228     0.81136269     0.91325661     741.12225    
     11200   1.0872643      212.01655      14.733764      226.75031      0.99605909     0.81104751     0.91927441     737.6056     
     11300   1.1375134      221.81511      17.909132      239.72424      1.0441218      0.895696       1.0108265      730.58485    
     11400   1.0733635      209.30589      22.682717      231.9886       0.98386307     0.99746255     1.1063993      724.87902    
     11500   0.95546469     186.31561      23.569867      209.88548      0.87170398     0.97545823     1.0708361      724.42032    
     11600   1.0674228      208.14744      19.532807      227.68024      0.96810965     0.94066533     1.0444053      727.86479    
     11700   1.1542101      225.07097      13.628902      238.69987      1.0414041      0.82904894     0.93826117     733.0722     
     11800   1.131772       220.69554      11.542929      232.23847      1.0148232      0.73637468     0.84068431     734.80901    
     11900   1.0779247      210.19533      14.3571        224.55243      0.95898616     0.82340005     0.92051325     728.91858    
     12000   1.0579503      206.30031      20.147157      226.44747      0.93454398     1.0124422      1.1062648      719.6674     
     12100   1.1581664      225.84244      22.878474      248.72092      1.0191277      1.1482932      1.2498546      716.43325    
     12200   1.2286264      239.58216      16.942376      256.52453      1.0829311      0.97304846     1.080277       724.7762     
     12300   1.1143692      217.30199      10.779981      228.08197      0.98546684     0.74104238     0.83798181     736.95286    
     12400   1.0401416      202.82761      9.7680548      212.59567      0.92099509     0.65945659     0.74995726     740.59058    
     12500   1.1475667      223.7755       14.793163      238.56866      1.0133166      0.81288305     0.91279987     731.87154    
     12600   1.2647714      246.63043      24.618155      271.24858      1.1109998      1.0639888      1.1735709      719.93967    
     12700   1.1976469      233.54115      28.842029      262.38318      1.048687       1.1144913      1.2173374      716.83973    
     12800   1.1131637      217.06691      23.120825      240.18774      0.9765282      0.93770916     1.0330924      723.98298    
     12900   1.0852692      211.6275       16.267227      227.89473      0.95596061     0.74796924     0.84145397     732.40791    
     13000   1.1746844      229.06345      13.75495       242.8184       1.036249       0.71367498     0.81543886     732.65188    
     13100   1.2572923      245.17199      17.161558      262.33355      1.1055186      0.83518694     0.943949       724.01118    
     13200   1.0900842      212.56641      26.098939      238.66535      0.95213249     0.95038471     1.0434958      713.21663    
     13300   1.0681151      208.28245      32.061127      240.34358      0.93097757     1.067177       1.1585298      705.98759    
     13400   1.1627946      226.74495      27.680246      254.42519      1.0201888      1.0271468      1.129297       706.5127     
     13500   1.1918135      232.40364      18.880866      251.28451      1.0534539      0.87470532     0.98167219     712.91557    
     13600   1.0794529      210.49332      15.796512      226.28983      0.95470226     0.77807655     0.87447853     718.18493    
     13700   0.96933555     189.02043      19.027808      208.04824      0.85468928     0.80211921     0.88773318     717.21392    
     13800   1.1644416      227.06611      24.815463      251.88157      1.024015       0.98268618     1.0852257      711.63094    
     13900   1.2038208      234.74505      25.682593      260.42764      1.0578353      1.0083119      1.1142527      709.83704    
     14000   1.1170157      217.81806      21.023675      238.84173      0.97981184     0.85996488     0.95710804     713.03851    
     14100   1.0776604      210.14378      17.893887      228.03766      0.93990885     0.83635082     0.92764764     714.69643    
     14200   1.160563       226.30978      18.903534      245.21332      1.0073608      0.94081876     1.0373325      713.33831    
     14300   1.2520274      244.14534      20.724368      264.86971      1.0901079      1.0005362      1.1059649      713.8121     
     14400   1.1221913      218.8273       20.175756      239.00305      0.98787697     0.91389593     1.0121108      719.04223    
     14500   0.9866606      192.39882      17.383103      209.78192      0.87986715     0.79231025     0.88255815     724.69561    
     14600   1.0588204      206.46998      15.843428      222.31341      0.95101063     0.78992814     0.88951704     724.74069    
     14700   1.1472865      223.72087      18.655137      242.37601      1.0278344      0.93671871     1.0442986      719.78725    
     14800   1.160287       226.25596      22.991998      249.24795      1.0309355      1.0378968      1.1436219      717.03033    
     14900   1.0764769      209.913        21.155842      231.06884      0.95137575     0.95913047     1.0545995      721.07242    
     15000   0.9980757      194.62476      15.851571      210.47633      0.8832573      0.79833999     0.88650441     727.84043    
     15100   1.1450611      223.28692      13.760653      237.04757      1.016867       0.77236605     0.87469411     729.56628    
     15200   1.21021        235.99095      16.782597      252.77355      1.0754288      0.83637106     0.94552147     724.77662    
     15300   1.1161065      217.64077      24.065302      241.70608      0.98930131     0.99541629     1.0960848      717.44859    
     15400   1.0614338      206.97959      28.219332      235.19892      0.94049648     1.0786373      1.174594       714.7589     
     15500   1.1325238      220.84214      23.98014       244.82228      1.0092808      0.98882268     1.0927369      720.56664    
     15600   1.2549098      244.70741      18.110349      262.81776      1.1267965      0.83088668     0.94768723     731.53724    
     15700   1.1519483      224.62993      15.868356      240.49828      1.0405453      0.71381519     0.82222249     740.26244    
     15800   1.1013675      214.76667      17.219299      231.98597      0.99784534     0.75199735     0.85682857     740.25677    
     15900   1.0934232      213.21753      22.089863      235.30739      0.98914986     0.88789955     0.99244364     732.73752    
     16000   1.113034       217.04162      27.426126      244.46775      1.0017772      1.0067172      1.1122697      724.55956    
     16100   1.1349482      221.3149       28.198483      249.51338      1.0174072      1.0091237      1.1155239      721.66598    
     16200   1.1108612      216.61793      24.292068      240.91         0.994214       0.92100099     1.0240696      724.63123    
     16300   1.0552232      205.76852      19.986957      225.75548      0.94514278     0.80933031     0.90692317     729.13441    
     16400   1.0889353      212.34239      18.8316        231.17399      0.97556301     0.82326967     0.924018       729.51654    
     16500   1.2150195      236.9288       22.647737      259.57654      1.0835429      0.99269236     1.1035315      726.72245    
     16600   1.1676652      227.69472      24.51438       252.2091       1.0401202      1.020466       1.1262115      728.73609    
     16700   1.0090575      196.76621      20.470491      217.2367       0.90501622     0.88930677     0.98207522     737.35789    
     16800   1.0199886      198.89777      17.040267      215.93803      0.92404946     0.78117117     0.87745793     746.19527    
     16900   1.0693105      208.51555      18.617514      227.13306      0.97688072     0.78510216     0.88881522     749.28372    
     17000   1.1173369      217.8807       25.030616      242.91132      1.0248865      0.87789323     0.98828721     746.51749    
     17100   1.1247673      219.32962      30.917604      250.24722      1.0332652      0.9577014      1.0700043      742.7866     
     17200   1.043816       203.54412      31.31651       234.86063      0.95909587     0.93646966     1.0408335      742.31609    
     17300   0.96752641     188.66765      27.823885      216.49154      0.88830873     0.8741269      0.97036734     744.04069    
     17400   1.1025221      214.9918       24.481717      239.47352      1.0104474      0.91250501     1.0213214      745.00983    
     17500   1.1707066      228.28779      21.306048      249.59384      1.073542       0.92267865     1.0381178      747.23375    
     17600   1.0905231      212.652        17.752475      230.40447      1.0034283      0.83689488     0.94510383     751.80925    
     17700   1.0357839      201.97787      16.891735      218.8696       0.95568635     0.77034777     0.87383751     754.06735    
     17800   1.0853325      211.63983      20.266319      231.90615      0.99952584     0.82784301     0.93618241     749.69246    
     17900   1.2665393      246.97515      25.814791      272.78994      1.1610288      1.0240919      1.1497603      741.68457    
     18000   1.1645221      227.0818       25.98392       253.06572      1.0662136      1.0376941      1.1529616      740.18062    
     18100   1.0703092      208.71029      18.648659      227.35895      0.98533344     0.88233587     0.98939188     747.20144    
     18200   1.0600715      206.71395      12.386729      219.10068      0.98318089     0.7412528      0.84897876     755.23165    
     18300   1.0930243      213.13973      11.775777      224.91551      1.0180963      0.72508055     0.83771958     756.06555    
     18400   1.1198881      218.37817      19.163938      237.54211      1.0409532      0.92831013     1.0440672      748.30079    
     18500   1.052385       205.21507      28.754489      233.96956      0.97533038     1.08134        1.1899813      741.49287    
     18600   0.97128359     189.4003       27.277185      216.67749      0.90769493     0.98859243     1.0915363      743.65084    
     18700   1.0600914      206.71783      18.895911      225.61374      1.0060125      0.81276523     0.92989119     751.70229    
     18800   1.1354413      221.41106      13.402226      234.81329      1.0899417      0.69657967     0.82591563     757.26709    
     18900   1.0590301      206.51088      13.793028      220.30391      1.0223992      0.68981461     0.81332494     753.3951     
     19000   1.0209446      199.0842       20.639604      219.7238       0.98638747     0.85969398     0.9815115      738.21353    
     19100   1.0345571      201.73864      32.267017      234.00566      0.99894975     1.1924538      1.3186248      720.87619    
     19200   1.0319812      201.23634      33.753455      234.98979      1.0015771      1.2425163      1.3709091      718.3093     
     19300   0.98400105     191.8802       19.709849      211.59005      0.96736907     0.87604689     1.000773       734.07995    
     19400   0.96256418     187.70002      9.1257702      196.82579      0.95797598     0.59561083     0.7193054      751.7464     
     19500   1.0376783      202.34726      7.394635       209.74189      1.0373696      0.57316655     0.70770383     755.19607    
     19600   1.0736843      209.36845      14.727033      224.09548      1.0675946      0.79521205     0.93439412     743.17598    
     19700   0.9698084      189.11264      28.62894       217.74158      0.95630455     1.1096343      1.234681       728.40495    
     19800   0.93483644     182.29311      30.735588      213.0287       0.92214008     1.1324614      1.2536132      725.48618    
     19900   1.0166057      198.23811      19.579157      217.81726      1.0069703      0.87404575     1.0057785      734.85308    
     20000   1.0373911      202.29127      11.016296      213.30756      1.0308112      0.6677789      0.80174421     744.49441    
     20100   1.0125351      197.44433      9.9782492      207.42258      1.0053734      0.64246626     0.77307429     743.67611    
     20200   0.98763402     192.58863      16.205449      208.79408      0.97508423     0.82186018     0.94912688     731.62145    
     20300   0.98696235     192.45766      26.836215      219.29387      0.96872155     1.0744557      1.2016594      718.35779    
     20400   1.0550904      205.74264      30.946434      236.68907      1.0327757      1.1348966      1.2702362      715.68632    
     20500   1.1003359      214.56549      26.519794      241.08529      1.0733158      0.9931623      1.1307583      726.15524    
     20600   0.99831351     194.67113      19.78989       214.46102      0.97237474     0.78893201     0.91049564     742.28342    
     20700   0.92059686     179.51639      16.28828       195.80467      0.89499072     0.6886751      0.79859456     752.51361    
     20800   1.0637438      207.43004      17.485806      224.91585      1.0294666      0.74697212     0.8723036      751.63617    
     20900   1.1201075      218.42096      22.402779      240.82374      1.0759072      0.8702776      1.0003479      744.36567    
     21000   1.0452119      203.81633      27.273006      231.08933      0.9959816      0.96760275     1.0868512      738.00784    
     21100   1.0044637      195.87042      27.251287      223.1217       0.95155694     1.0070473      1.1196222      736.71632    
     21200   1.0577342      206.25817      23.166331      229.4245       0.99620155     0.97927561     1.0947493      741.54484    
     21300   1.1979942      233.60886      18.227766      251.83663      1.1240413      0.89671146     1.0242144      750.84737    
     21400   1.1101691      216.48297      16.014255      232.49722      1.0404178      0.77103323     0.88726899     760.17452    
     21500   0.99741638     194.49619      16.110721      210.60691      0.93525672     0.73569182     0.83995334     762.83205    
     21600   1.0487662      204.50942      18.507068      223.01648      0.98436397     0.83229187     0.94312481     757.07841    
     21700   1.1211675      218.62767      22.845019      241.47269      1.0512815      0.97774902     1.0970731      749.20168    
     21800   1.0867897      211.92398      25.348778      237.27276      1.0171298      0.99550983     1.1107938      746.80858    
     21900   0.9633989      187.86279      24.29529       212.15807      0.90258891     0.89529197     0.99740894     750.07873    
     22000   1.0020408      195.39796      21.79906       217.19702      0.9440104      0.81755349     0.92535665     753.1977     
     22100   1.1472237      223.70862      20.207701      243.91632      1.0885009      0.79190353     0.91844869     752.47556    
     22200   1.0884304      212.24392      20.8351        233.07902      1.0386954      0.77490343     0.89813537     747.32114    
     22300   1.007715       196.50443      25.269016      221.77345      0.9650901      0.87786497     0.99481036     737.66885    
     22400   1.0054615      196.06499      31.240268      227.30526      0.9648015      1.0374667      1.1563022      728.92278    
     22500   1.1023198      214.95236      30.073131      245.02549      1.0617416      1.0520226      1.1839952      728.46876    
     22600   1.1796991      230.04132      21.751962      251.79329      1.1419409      0.91583499     1.0576518      737.19985    
     22700   0.98521743     192.1174       14.76252       206.87992      0.95777644     0.69177311     0.81014082     747.76388    
     22800   0.9768333      190.48249      13.327714      203.81021      0.94851599     0.66518924     0.78199046     748.55977    
     22900   1.0755549      209.73321      16.094407      225.82762      1.0378269      0.7997189      0.92749425     738.40582    
     23000   1.1139416      217.21861      21.530857      238.74947      1.0664104      1.0033253      1.1345248      725.91456    
     23100   0.98501916     192.07874      24.46593       216.54467      0.93710374     1.078719       1.1931478      720.90776    
     23200   0.97050596     189.24866      20.398917      209.64758      0.92168477     0.97543554     1.086815       725.49274    
     23300   1.0308288      201.01161      15.493516      216.50512      0.98056683     0.82376775     0.94134845     733.91704    
     23400   1.0648315      207.64214      14.207672      221.84981      1.0146465      0.77684596     0.89815198     739.03417    
     23500   1.0661769      207.9045       15.945062      223.84956      1.0160015      0.80542654     0.92697271     738.68192    
     23600   1.0205656      199.01029      18.998007      218.0083       0.96991531     0.8695977      0.98552122     734.75077    
     23700   0.94317445     183.91902      20.594497      204.51351      0.89236557     0.88569098     0.99188902     730.18384    
     23800   1.0415918      203.11041      20.17476       223.28517      0.9799364      0.89576228     1.0115255      725.71347    
     23900   1.1608536      226.36646      18.46711       244.83357      1.0869502      0.88737995     1.0149153      722.23079    
     24000   1.1021957      214.92816      16.430806      231.35896      1.0297683      0.83789053     0.95849278     719.67098    
     24100   1.0477122      204.30389      16.579636      220.88352      0.97821977     0.85252817     0.96756734     715.53454    
     24200   1.0622098      207.1309       18.253186      225.38409      0.98994469     0.9345382      1.0512767      710.33013    
     24300   1.0858225      211.7354       19.201363      230.93676      1.0106082      0.97330605     1.0925001      707.86086    
     24400   1.0822022      211.02944      17.374532      228.40397      1.0085379      0.92214732     1.041152       709.82259    
     24500   1.0155733      198.0368       14.254209      212.29101      0.95118585     0.80522927     0.91828392     713.46607    
     24600   1.0058385      196.1385       13.507966      209.64646      0.94800282     0.77115834     0.88558343     713.36041    
     24700   1.1059714      215.66443      16.224969      231.8894       1.0462472      0.88868725     1.0169848      708.39982    
     24800   1.1278517      219.93109      19.124604      239.05569      1.0690616      0.95121441     1.0837219      704.14125    
     24900   0.99745991     194.50468      18.695357      213.20004      0.94781056     0.89381051     1.0120659      703.59429    
     25000   0.97453563     190.03445      17.146433      207.18088      0.92835835     0.85134892     0.96780327     703.92002    
     25100   1.0336289      201.55763      16.771472      218.32911      0.98681857     0.88011406     1.0046803      703.08136    
     25200   1.0614198      206.97686      16.808666      223.78553      1.0154375      0.90204571     1.0309505      702.42811    
     25300   1.0529276      205.32089      16.191395      221.51228      1.0080731      0.89106657     1.0191253      703.15029    
     25400   0.99917683     194.83948      15.485484      210.32496      0.95579456     0.88859102     1.0094388      705.08806    
     25500   0.9403245      183.36328      14.693777      198.05705      0.89885925     0.83968936     0.95276614     707.50588    
     25600   1.0507015      204.88678      14.545153      219.43194      1.0047203      0.8343234      0.96072369     708.03844    
     25700   1.1237806      219.13722      14.485312      233.62253      1.0765744      0.85923961     0.99550202     706.71778    
     25800   1.045521       203.8766       14.36288       218.23948      1.004808       0.84981503     0.97824499     704.91445    
     25900   0.98748452     192.55948      15.808373      208.36785      0.95001954     0.84744221     0.9696846      701.85343    
     26000   1.02427        199.73265      18.70412       218.43677      0.98271745     0.91356726     1.0400473      697.37159    
     26100   1.0588273      206.47133      20.223054      226.69438      1.0127752      0.96335948     1.0933224      694.59642    
     26200   1.0512914      205.00183      19.335841      224.33767      1.0047357      0.91188765     1.0403238      695.9546     
     26300   1.0336132      201.55457      16.93035       218.48491      0.98940049     0.84092531     0.96715782     699.81793    
     26400   1.035283       201.88018      14.801157      216.68133      0.99340347     0.79260139     0.9195196      702.71267    
     26500   1.0849052      211.55652      15.223835      226.78035      1.0418301      0.84875383     0.98216242     702.35138    
     26600   1.0951976      213.56354      16.365329      229.92887      1.0541667      0.88468614     1.0206811      700.81505    
     26700   0.98950831     192.95412      15.148852      208.10297      0.95885986     0.87791267     1.0036121      700.01764    
     26800   0.95056522     185.36022      14.727375      200.08759      0.92569385     0.87487846     0.99764216     699.45823    
     26900   1.0639099      207.46242      16.673923      224.13635      1.0331347      0.93390054     1.0701215      699.20267    
     27000   1.1149519      217.41561      17.536295      234.95191      1.0764292      0.91829969     1.0578102      702.29939    
     27100   1.0492708      204.60781      15.865848      220.47366      1.0106038      0.83553034     0.96456733     709.09208    
     27200   1.0059831      196.16671      14.28248       210.44919      0.96934123     0.7690627      0.89181849     715.65067    
     27300   1.0287886      200.61377      15.754134      216.3679       0.98988745     0.8049496      0.92947112     718.13496    
     27400   1.151867       224.61407      19.065044      243.67912      1.1050637      0.90633795     1.0445472      717.53203    
     27500   1.1278958      219.93969      19.224259      239.16395      1.0835475      0.92558502     1.0612453      719          
     27600   0.9623343      187.65519      15.867838      203.52303      0.92974164     0.8161599      0.93328542     723.66054    
     27700   0.99279995     193.59599      14.189067      207.78506      0.96467972     0.77352249     0.89616049     726.16292    
     27800   1.0725167      209.14075      15.882088      225.02284      1.0460744      0.81204776     0.94659867     723.58524    
     27900   1.0679674      208.25365      19.305615      227.55926      1.045011       0.89646785     1.0329731      717.44167    
     28000   0.93413037     182.15542      22.480353      204.63578      0.91910178     0.95248431     1.0749181      711.74289    
     28100   0.91956948     179.31605      24.115537      203.43159      0.91052894     0.95863786     1.0819986      709.04982    
     28200   0.98609364     192.28826      23.155226      215.44349      0.97974151     0.94376712     1.0771591      710.50749    
     28300   1.0121328      197.3659       19.102456      216.46836      1.0090788      0.83069557     0.96793003     716.24995    
     28400   1.0187061      198.6477       15.313485      213.96118      1.0185633      0.7287214      0.86698034     721.77133    
     28500   0.99102776     193.25041      14.289514      207.53993      0.99044173     0.72320572     0.85759016     721.43034    
     28600   0.93355112     182.04247      16.969986      199.01245      0.92901731     0.82656056     0.95296176     713.28127    
     28700   0.96780407     188.72179      22.393468      211.11526      0.95626744     1.0580697      1.1884838      701.33949    
     28800   1.1151558      217.45538      22.187286      239.64266      1.0955426      1.1774191      1.3259849      696.92079    
     28900   1.0704896      208.74547      11.820382      220.56585      1.0543028      0.86168268     1.0033284      707.15343    
     29000   0.95007765     185.26514      7.2306607      192.4958       0.93941533     0.58042236     0.70538797     720.06652    
     29100   0.97280421     189.69682      9.8577236      199.55455      0.95987322     0.63974555     0.76681221     720.45678    
     29200   1.0463185      204.03211      18.53471       222.56682      1.0238366      0.8970589      1.0324399      708.75542    
     29300   1.0746575      209.55821      28.635854      238.19407      1.041376       1.1853008      1.3222986      697.56532    
     29400   0.96566563     188.3048       25.453         213.7578       0.93301496     1.0793304      1.2008381      700.10833    
     29500   0.894303       174.38909      15.899791      190.28888      0.86689863     0.73424985     0.84594355     712.77263    
     29600   1.0057095      196.11336      13.687082      209.80044      0.97427911     0.62902153     0.75310239     720.0984     
     29700   1.0564524      206.00821      16.449598      222.45781      1.0167131      0.71723447     0.84568377     715.36962    
     29800   1.0710298      208.85081      23.832723      232.68353      1.0212845      0.96555908     1.0941747      702.75685    
     29900   1.0225036      199.3882       31.182266      230.57047      0.96915456     1.1691653      1.2910365      693.96323    
     30000   0.96953559     189.05944      28.141539      217.20098      0.92022448     1.0854834      1.200876       698.19343    
     30100   1.0653135      207.73614      18.79078       226.52692      1.0166346      0.87017379     0.99662864     712.80615    
     30200   1.1156233      217.54654      13.867579      231.41412      1.0690424      0.69583408     0.82723056     728.19976    
     30300   1.0356929      201.96011      15.044402      217.00452      0.98932235     0.67301573     0.79255926     735.39178    
     30400   0.99691477     194.39838      19.81608       214.21446      0.94499835     0.7942579      0.90694972     731.96202    
     30500   1.1203238      218.46313      27.264185      245.72732      1.0533359      1.0517674      1.1762229      724.46969    
     30600   1.2074145      235.44583      26.46204       261.90787      1.1350049      1.1097605      1.2435829      725.66781    
     30700   1.0630366      207.29214      14.834268      222.12641      1.0092629      0.82548366     0.94523273     738.3932     
     30800   1.0077373      196.50877      7.8795747      204.38834      0.96542407     0.61410959     0.72945665     748.70121    
     30900   1.0399497      202.79018      10.012068      212.80225      0.99480885     0.70949903     0.82848406     745.37789    
     31000   1.1264619      219.66008      17.979237      237.63932      1.0758569      0.92807421     1.0583966      733.30447    
     31100   1.1275767      219.87745      23.241382      243.11883      1.0833803      1.062941       1.1975467      724.7317     
     31200   0.96032253     187.26289      21.740211      209.0031       0.93147687     0.97038587     1.0884151      725.75095    
     31300   0.96325527     187.83478      16.742521      204.5773       0.94566967     0.84134969     0.96337475     731.3779     
     31400   1.0521549      205.1702       12.710923      217.88112      1.0460068      0.77257243     0.9103434      735.34933    
     31500   1.0455985      203.8917       12.819739      216.71144      1.0482543      0.7811607      0.92164792     734.91965    
     31600   0.95370923     185.9733       17.214873      203.18817      0.9575787      0.85387895     0.98336263     730.57285    
     31700   0.89921739     175.34739      23.887801      199.23519      0.89693054     0.94963913     1.0701616      725.61783    
     31800   1.0052668      196.02702      27.238001      223.26502      0.9920845      0.98735823     1.1180364      724.32715    
     31900   1.1084359      216.14501      24.070726      240.21573      1.0853425      0.91841741     1.0581638      728.89462    
     32000   1.0331233      201.45905      19.427435      220.88649      1.0082767      0.77858658     0.90617        736.5065     
     32100   0.95120234     185.48446      18.541172      204.02563      0.92820731     0.74280714     0.85971826     739.70969    
     32200   1.0013596      195.26513      22.664944      217.93007      0.97971123     0.89220361     1.0168724      736.27303    
     32300   1.0887524      212.30673      28.672983      240.97971      1.0739681      1.0310601      1.1705505      733.85632    
     32400   1.0240372      199.68724      28.750636      228.43788      1.0251938      0.96142525     1.09753        739.83106    
     32500   0.96661866     188.49064      23.558979      212.04962      0.98239064     0.78967515     0.92191247     751.29942    
     32600   0.96733603     188.63053      17.47292       206.10345      0.99547035     0.68852154     0.82424295     759.21909    
     32700   0.99295858     193.62692      14.048846      207.67577      1.029892       0.67722941     0.8199742      757.51583    
     32800   0.95936591     187.07635      17.795013      204.87137      0.99432873     0.81781475     0.95755916     746.09043    
     32900   0.87431982     170.49236      28.502534      198.9949       0.89750919     1.0323782      1.1586369      732.44702    
     33000   0.95774875     186.76101      30.683972      217.44498      0.97474083     1.1401615      1.2760682      727.24952    
     33100   1.0553213      205.78766      19.812616      225.60028      1.0706876      0.94124717     1.0879891      735.46697    
     33200   1.0051645      196.00707      11.145673      207.15275      1.0206201      0.69019145     0.82787708     748.33234    
     33300   0.95819137     186.84732      11.571904      198.41922      0.97202648     0.64626879     0.77645334     752.44292    
     33400   0.97114749     189.37376      19.994347      209.36811      0.9796874      0.85575304     0.98683117     745.1636     
     33500   1.0020936      195.40825      32.178788      227.58704      1.0068939      1.0902565      1.225308       737.58281    
     33600   1.012283       197.39518      32.935818      230.331        1.0240151      1.0749379      1.2133485      741.57026    
     33700   1.0775689      210.12594      23.071856      233.1978       1.1055184      0.8557851      1.0061912      756.55801    
     33800   1.0256322      199.99828      14.954824      214.9531       1.0647697      0.67151894     0.81663716     771.64157    
     33900   0.90315352     176.11494      13.285703      189.40064      0.94216242     0.59875069     0.72758858     775.69299    
     34000   0.92075424     179.54708      18.167659      197.71474      0.95602561     0.69496447     0.82649698     764.58984    
     34100   1.0391385      202.63201      27.627211      230.25923      1.0694416      0.92301408     1.0714399      745.924      
     34200   1.0427437      203.33502      32.560432      235.89546      1.0689467      1.1011521      1.2508853      733.7475     
     34300   0.90992994     177.43634      26.410043      203.84638      0.9342906      0.98845436     1.1195532      734.64266    
     34400   0.94027424     183.35348      17.092081      200.44556      0.96878496     0.78002226     0.91561467     741.19572    
     34500   1.010431       197.03404      12.371566      209.4056       1.0413469      0.71521175     0.86062643     743.25785    
     34600   1.015386       198.00027      13.103806      211.10408      1.040743       0.75106319     0.89591313     738.26346    
     34700   0.90246032     175.97976      17.35453       193.33429      0.91760836     0.84867384     0.9761031      728.87099    
     34800   0.9159237      178.60512      21.754968      200.36009      0.92454034     0.99414746     1.1223133      720.04499    
     34900   1.0041067      195.8008       20.232691      216.0335       1.0118213      1.0552087      1.1953195      718.45166    
     35000   1.0054251      196.0579       13.591114      209.64901      1.016483       0.87208468     1.0123522      725.55359    
     35100   0.97004259     189.15831      11.451148      200.60945      0.98391481     0.73345777     0.86875229     732.68849    
     35200   0.96118493     187.43106      14.124623      201.55568      0.97866186     0.76159786     0.89704417     733.25631    
     35300   1.0536395      205.4597       17.258357      222.71806      1.0800328      0.84086257     0.99312028     728.96081    
     35400   1.0602305      206.74494      17.639091      224.38404      1.0983663      0.87545456     1.0342625      724.62607    
     35500   0.91943988     179.29078      16.655931      195.94671      0.9630595      0.8282781      0.97078076     721.99115    
     35600   0.91433141     178.29462      18.940411      197.23504      0.9599462      0.86857291     1.011835       718.74986    
     35700   0.96880403     188.91679      21.878475      210.79526      1.0178876      0.93692255     1.0895004      716.51458    
     35800   0.99615196     194.24963      22.815021      217.06465      1.0500942      0.96077806     1.1185493      718.9395     
     35900   0.91215698     177.87061      21.220692      199.0913       0.96731692     0.87306133     1.018303       726.74224    
     36000   0.82403503     160.68683      18.366309      179.05314      0.8790156      0.77552288     0.90729669     735.08336    
     36100   0.9226769      179.92199      17.961611      197.88361      0.98551188     0.77846808     0.92579742     738.70547    
     36200   0.98306902     191.69846      19.710968      211.40943      1.045213       0.81322867     0.9683955      738.23089    
     36300   0.95488404     186.20239      21.84683       208.04922      1.0070142      0.8613965      1.0092433      736.2539     
     36400   0.90293067     176.07148      23.675881      199.74736      0.94425164     0.89105769     1.0279471      734.85785    
     36500   0.91299334     178.0337       25.055027      203.08873      0.94699879     0.93800603     1.07325        735.24132    
     36600   1.0478253      204.32594      23.674393      228.00033      1.0831927      0.95751388     1.1103203      739.82184    
     36700   1.0141765      197.76441      17.591944      215.35636      1.0537616      0.81237356     0.96044324     749.56421    
     36800   0.90783463     177.02775      12.655582      189.68333      0.95051126     0.69176393     0.82580003     757.05016    
     36900   0.90831351     177.12113      14.246326      191.36746      0.95503444     0.74061037     0.87658902     755.29474    
     37000   0.96457715     188.09254      22.593637      210.68618      1.0161343      0.9362933      1.0829723      747.44736    
     37100   0.96483531     188.14289      28.554867      216.69775      1.0211772      1.0441916      1.1934589      744.04815    
     37200   0.93683617     182.68305      23.171051      205.8541       1.0009202      0.96249512     1.1097936      750.76536    
     37300   0.91246897     177.93145      13.926126      191.85758      0.98478071     0.75362809     0.89856884     763.13459    
     37400   0.91919274     179.24258      12.317451      191.56003      0.99517232     0.65958503     0.80547916     770.03036    
     37500   0.99831074     194.67059      17.668653      212.33925      1.0775456      0.75234402     0.91028721     766.41646    
     37600   0.99944036     194.89087      24.382738      219.27361      1.0750289      0.84101636     0.99951066     757.70922    
     37700   0.88312236     172.20886      27.098909      199.30777      0.94867843     0.84873978     0.98994924     748.91524    
     37800   0.90653581     176.77448      26.643642      203.41812      0.9709331      0.88733971     1.032809       740.42379    
     37900   0.97181614     189.50415      26.137822      215.64197      1.0317054      0.94219776     1.095798       734.2798     
     38000   0.97776422     190.66402      24.912504      215.57653      1.0210423      0.93671969     1.0846948      733.24068    
     38100   0.85738209     167.18951      20.651637      187.84114      0.88288215     0.83704229     0.96130189     736.32109    
     38200   0.90865832     177.18837      16.884499      194.07287      0.92659619     0.79126049     0.91907117     737.84375    
     38300   1.0197192      198.84524      18.208313      217.05355      1.0305662      0.81344155     0.95366292     735.3419     
     38400   1.0249524      199.86572      22.723191      222.58891      1.0260932      0.8597395      0.997705       730.46957    
     38500   0.98724276     192.51234      25.759588      218.27193      0.98108972     0.96104976     1.0918522      725.88082    
     38600   0.95070212     185.38691      24.132401      209.51931      0.94044209     0.97540479     1.0996292      725.80465    
     38700   0.96506819     188.1883       19.049508      207.2378       0.95328205     0.87477053     0.99946868     730.75138    
     38800   1.0770523      210.0252       15.930284      225.95549      1.0633229      0.76733821     0.90528681     735.98733    
     38900   1.0752447      209.67271      15.232127      224.90484      1.0612596      0.72816595     0.86565866     736.59429    
     39000   0.97126012     189.39572      16.267327      205.66305      0.95753703     0.75197167     0.87684959     730.01402    
     39100   0.97379651     189.89032      21.970427      211.86075      0.95613738     0.91541587     1.0412309      717.38569    
     39200   1.0301825      200.88559      29.921116      230.80671      1.0066637      1.0940298      1.2270801      707.00239    
     39300   1.0355132      201.92508      29.513058      231.43814      1.0146526      1.0859129      1.2207119      707.484      
     39400   1.0077338      196.5081       20.331713      216.83981      0.99870099     0.85491797     0.98870925     718.3674     
     39500   0.9903095      193.11035      12.587378      205.69773      0.9936888      0.63695323     0.77145062     728.93958    
     39600   1.0009514      195.18553      10.151249      205.33677      1.0121593      0.60393602     0.74314552     728.2344     
     39700   1.0234847      199.57951      14.282697      213.86221      1.0356202      0.77128971     0.91656442     714.90224    
     39800   0.97674475     190.46523      25.769353      216.23458      0.98421904     1.0392131      1.1794144      698.35974    
     39900   0.93057491     181.46211      32.36941       213.83152      0.93711021     1.1977118      1.3323765      691.4297     
     40000   0.98245573     191.57887      24.420595      215.99946      0.99708376     0.99248541     1.1363012      699.27407    
     40100   1.0634438      207.37154      15.746756      223.1183       1.0875113      0.77438798     0.93038897     713.26014    
     40200   0.99211765     193.46294      12.371653      205.8346       1.014444       0.67733304     0.8208805      722.89087    
     40300   0.89889018     175.28359      14.30758       189.59117      0.90971133     0.71370592     0.83991108     723.12286    
     40400   0.94860043     184.97708      19.426063      204.40315      0.94459737     0.84724619     0.97544263     716.01008    
     40500   1.0205598      199.00916      22.457801      221.46696      1.0024344      0.96967775     1.1033045      708.72129    
     40600   1.0718201      209.00492      20.821524      229.82645      1.0428496      0.9832002      1.1197696      706.96646    
     40700   1.0203402      198.96633      19.311053      218.27739      0.98575721     0.90169666     1.028127       710.75108    
     40800   0.94281937     183.84978      21.748463      205.59824      0.90546893     0.85416095     0.9679475      715.83698    
     40900   1.044864       203.74848      24.123426      227.87191      1.0017323      0.88305061     1.0078211      719.39366    
     41000   1.1154668      217.51604      20.790674      238.30671      1.0768211      0.8858074      1.0213465      722.98354    
     41100   1.034913       201.80804      14.727185      216.53522      1.0100864      0.79530376     0.92480579     726.99454    
     41200   0.97249161     189.63586      13.319546      202.95541      0.95430446     0.7355686      0.85933543     726.97462    
     41300   1.0069516      196.35555      17.009438      213.36499      0.98631291     0.84994121     0.97848154     720.66197    
     41400   1.1580981      225.82912      22.359373      248.1885       1.1313386      1.0355862      1.1835091      714.24419    
     41500   1.1568383      225.58347      23.146098      248.72956      1.1321376      1.0037978      1.1518913      716.66115    
     41600   0.97176226     189.49364      20.218068      209.71171      0.95577762     0.82616396     0.95090706     725.88547    
     41700   0.98034977     191.16821      18.031729      209.19993      0.96801452     0.76038036     0.8865804      732.64676    
     41800   1.0582402      206.35684      18.437915      224.79475      1.044282       0.78581679     0.9216227      733.53053    
     41900   1.0713274      208.90884      21.781047      230.68988      1.049284       0.87681805     1.0116653      730.68887    
     42000   0.96703742     188.5723       24.941628      213.51393      0.93489766     0.92393097     1.0411088      728.40308    
     42100   0.95780933     186.77282      23.614484      210.3873       0.91374215     0.90899911     1.0201632      728.23513    
     42200   1.1423809      222.76428      18.317264      241.08155      1.0795529      0.90705245     1.0352742      729.55426    
     42300   1.1525115      224.73974      13.121073      237.86081      1.0813621      0.83669229     0.96247213     732.22674    
     42400   1.0612159      206.93711      12.470761      219.40787      0.98890666     0.79282558     0.90579381     733.06045    
     42500   1.0241975      199.71851      15.772967      215.49148      0.94911691     0.83009881     0.93755235     729.36406    
     42600   1.098684       214.24337      19.270496      233.51387      1.0168354      0.93806891     1.0538407      722.88266    
     42700   1.2072916      235.42187      19.85605       255.27792      1.1225898      0.98719495     1.1171784      719.29876    
     42800   1.0515929      205.06062      16.938632      221.99925      0.98712839     0.83855432     0.95531133     720.88175    
     42900   0.97935695     190.9746       15.659647      206.63425      0.92714161     0.80398216     0.91588033     720.99382    
     43000   1.0517007      205.08164      20.295427      225.37706      0.9973648      0.95143559     1.072867       717.65819    
     43100   1.101952       214.88064      25.78523       240.66587      1.0461935      1.0322989      1.1599822      717.82343    
     43200   1.049556       204.66341      23.567863      228.23128      1.0040169      0.95366377     1.0769484      726.07244    
     43300   0.91490336     178.40615      16.413955      194.82011      0.8848581      0.73842083     0.84795705     738.17838    
     43400   0.91316879     178.06791      12.087397      190.15531      0.890226       0.66348664     0.77486365     743.13638    
     43500   1.0724906      209.13566      12.707932      221.84359      1.0495179      0.76001222     0.89357249     736.54456    
     43600   1.0611108      206.91661      18.835809      225.75242      1.0431777      0.95455214     1.0908424      724.44233    
     43700   0.96583615     188.33805      25.283687      213.62174      0.96112482     1.0805425      1.2106353      716.96145    
     43800   0.92913659     181.18163      23.38952       204.57115      0.94286368     1.0295464      1.1616094      719.93993    
     43900   1.028911       200.63765      18.810635      219.44829      1.0596846      0.88197071     1.0321839      731.29363    
     44000   1.0396058      202.72314      16.325292      219.04843      1.0773767      0.75022336     0.90192419     744.54596    
     44100   0.96349016     187.88058      15.475631      203.35621      0.99908903     0.67533045     0.81467106     752.49062    
     44200   0.94300764     183.88649      17.227103      201.11359      0.97412123     0.76238835     0.8976157      750.8173     
     44300   0.97651119     190.41968      24.077134      214.49682      0.99962647     0.96508504     1.1027694      744.2447     
     44400   1.0919582      212.93186      29.555301      242.48716      1.1076325      1.066958       1.2171011      743.32056    
     44500   1.0882772      212.21405      26.263688      238.47773      1.1000251      0.97254638     1.1186188      753.6898     
     44600   0.92164497     179.72077      17.950751      197.67152      0.93556033     0.75483987     0.87744901     769.91332    
     44700   0.92847576     181.05277      15.020127      196.0729       0.94718534     0.66119691     0.78503014     779.05203    
     44800   1.0044109      195.86013      18.227053      214.08718      1.0256225      0.73646979     0.87135114     775.84674    
     44900   1.0286076      200.57848      24.811343      225.38983      1.0469164      0.90357934     1.0421613      766.10249    
     45000   0.9497213      185.19565      28.855927      214.05158      0.96101374     1.0093645      1.1362713      759.46543    
     45100   0.85474228     166.67474      26.22788       192.90262      0.86017676     0.99258425     1.104822       760.50223    
     45200   0.99701029     194.41701      18.789715      213.20672      1.0026658      0.90505995     1.0345541      767.32458    
     45300   1.0413648      203.06614      13.351823      216.41796      1.0512517      0.77125773     0.9066286      775.28209    
     45400   0.96916554     188.98728      13.205894      202.19317      0.982092       0.73799881     0.8650079      777.6268     
     45500   0.93148672     181.63991      17.410877      199.05079      0.94387892     0.8524741      0.97529655     772.79529    
     45600   0.99750402     194.51328      22.495036      217.00832      1.0104047      0.971495       1.1038289      767.26614    
     45700   1.0685326      208.36387      24.604857      232.96872      1.0834878      0.96578892     1.1078994      767.69873    
     45800   0.96629943     188.42839      25.644446      214.07283      0.97957693     0.84456364     0.97200899     773.56807    
     45900   0.85846327     167.40034      26.663593      194.06393      0.86793509     0.80848774     0.92020952     777.86667    
     46000   0.94006265     183.31222      25.564762      208.87698      0.94765628     0.86612176     0.98740349     777.94961    
     46100   1.0137275      197.67686      21.307819      218.98468      1.0203837      0.87674737     1.0071074      777.04503    
     46200   1.0298018      200.81134      17.397467      218.20881      1.0354862      0.83123179     0.96336752     776.36912    
     46300   0.95660351     186.53768      18.335033      204.87272      0.95863416     0.79217384     0.91413082     773.56882    
     46400   0.91685971     178.78764      22.075173      200.86282      0.91254821     0.87928276     0.99481889     766.76431    
     46500   1.0695988      208.57177      24.775183      233.34695      1.0562298      1.0214048      1.154085       760.50206    
     46600   1.1163573      217.68968      22.838512      240.52819      1.0988962      0.97593484     1.1127345      762.33336    
     46700   1.0014696      195.28657      18.165203      213.45177      0.98823047     0.7773245      0.89976258     769.899      
     46800   0.97101512     189.34795      16.41607       205.76402      0.9618895      0.70959798     0.82935017     772.30884    
     46900   1.0195251      198.80739      18.423494      217.23089      1.0130586      0.78474676     0.91279969     765.45504    
     47000   1.0768396      209.98373      24.40275       234.38648      1.0706583      0.93677707     1.0742585      754.42327    
     47100   1.0234408      199.57096      29.899454      229.47042      1.0149323      1.0186023      1.1493716      747.91404    
     47200   0.92929591     181.2127       28.007062      209.21976      0.91842824     0.97457847     1.0918331      749.53741    
     47300   0.98876555     192.80928      21.209574      214.01886      0.97056609     0.88339232     1.004486       756.16343    
     47400   1.1000824      214.51607      15.497097      230.01317      1.0687559      0.7931657      0.92245495     762.8586     
     47500   1.0752762      209.67885      13.331232      223.01009      1.0333949      0.74065603     0.8623698      764.95736    
     47600   1.0101147      196.97237      15.30099       212.27336      0.96047806     0.79580688     0.90695654     759.76569    
     47700   1.0369871      202.21248      18.932528      221.14501      0.97804888     0.91468674     1.0271258      750.23615    
     47800   1.07863        210.33284      20.103659      230.4365       1.0136764      0.97595075     1.0926168      742.92654    
     47900   1.0822287      211.0346       17.574966      228.60957      1.0165148      0.89890907     1.0161086      740.65367    
     48000   1.0274602      200.35473      14.758584      215.11332      0.96217319     0.78853951     0.89885828     739.3303     
     48100   0.98085825     191.26736      14.526599      205.79396      0.91182543     0.77073158     0.87422209     733.37638    
     48200   1.0913019      212.80388      16.934741      229.73862      1.0074838      0.88616072     1.0001845      722.55879    
     48300   1.2126503      236.46682      20.676338      257.14316      1.1174546      1.0490693      1.1764519      713.9702     
     48400   1.0928019      213.09638      19.586884      232.68326      1.0129993      0.98472836     1.1019499      714.13864    
     48500   1.0284677      200.55121      16.005824      216.55703      0.96304275     0.85360637     0.96712202     719.02261    
     48600   1.0473648      204.23614      14.600785      218.83692      0.98923467     0.78390888     0.90249212     721.93696    
     48700   1.0995174      214.40589      14.92675       229.33264      1.0425057      0.7778661      0.9043225      719.99752    
     48800   1.0991127      214.32699      15.422781      229.74977      1.042963       0.77493345     0.90279827     713.73169    
     48900   0.97613695     190.34671      17.161059      207.50776      0.9244394      0.82545821     0.93983761     703.92077    
     49000   1.00518        196.0101       20.766208      216.77631      0.95026621     0.94418978     1.0630673      693.30065    
     49100   1.1207422      218.54473      22.686408      241.23114      1.0612375      1.0060687      1.1405233      687.20476    
     49200   1.1055357      215.57945      21.101324      236.68078      1.0519417      0.96763929     1.1023216      687.83706    
     49300   0.95033538     185.3154       17.493138      202.80854      0.90970665     0.88011981     0.99738635     692.68393    
     49400   0.94959951     185.17191      14.413935      199.58584      0.91211466     0.83681519     0.95453669     697.21918    
     49500   1.0195046      198.80341      13.760229      212.56364      0.97789783     0.82872389     0.95416025     699.32404    
     49600   1.0902855      212.60567      14.952549      227.55822      1.0410267      0.86687079     0.99899555     699.45363    
     49700   1.0828376      211.15333      16.213824      227.36715      1.0289522      0.85579314     0.98495363     699.35992    
     49800   0.98081273     191.25848      17.055225      208.31371      0.92894158     0.8398913      0.9557213      698.62212    
     49900   0.95599832     186.41967      18.575123      204.99479      0.90334939     0.89361784     1.0060283      696.2134     
     50000   1.1336529      221.06232      21.26157       242.32389      1.0682182      1.0009603      1.1332765      694.74194    
     50100   1.1157575      217.57271      20.313251      237.88596      1.0500916      0.95426498     1.0831603      699.04876    
     50200   1.0223169      199.35179      16.354503      215.7063       0.9611616      0.8329197      0.94924244     707.24398    
     50300   1.0154101      198.00497      13.037162      211.04213      0.95278293     0.75668688     0.8704872      713.18284    
     50400   1.1620506      226.59988      13.030685      239.63056      1.0858401      0.77208966     0.9005029      712.94268    
     50500   1.1945302      232.93339      16.476238      249.40963      1.1099716      0.83712538     0.96751701     707.77762    
     50600   1.0893745      212.42804      22.153658      234.58169      1.007081       0.93576186     1.0536273      701.19516    
     50700   1.0684306      208.34396      25.60955       233.95351      0.98767798     0.98652301     1.1027554      697.27253    
     50800   1.0725071      209.13889      23.79679       232.93568      0.99570787     0.95549827     1.0737827      698.34651    
     50900   1.0954025      213.60349      19.675207      233.27869      1.0201739      0.84814077     0.96951801     702.82917    
     51000   1.1056894      215.60942      17.109932      232.71936      1.0292719      0.79400805     0.91573254     706.24445    
     51100   1.0493294      204.61923      16.774463      221.39369      0.97332498     0.79085573     0.90501671     705.71391    
     51200   1.0078392      196.52865      18.169527      214.69817      0.93154789     0.82584475     0.93491267     700.61743    
     51300   1.1028232      215.05052      20.796517      235.84704      1.0182895      0.94330191     1.0635912      692.56652    
     51400   1.2047315      234.92264      23.090112      258.01275      1.1138883      1.0175168      1.1505667      687.31093    
     51500   1.0610933      206.9132       23.815657      230.72885      0.98526715     0.95765892     1.0763908      688.69502    
     51600   0.99653806     194.32492      22.953688      217.27861      0.93187013     0.91790323     1.0312602      694.38176    
     51700   1.0371201      202.23841      21.719889      223.9583       0.97595322     0.88513579     1.0043405      702.2866     
     51800   1.0873873      212.04052      20.732134      232.77265      1.0285701      0.84220548     0.96779977     711.26276    
     51900   1.0793942      210.48187      19.317457      229.79933      1.0271182      0.79345589     0.91922572     719.28035    
     52000   0.98821315     192.70156      18.448174      211.14974      0.94715747     0.79054175     0.90771728     723.83351    
     52100   0.89177455     173.89604      20.799286      194.69532      0.86075347     0.85833277     0.96646698     724.14391    
     52200   1.0078879      196.53814      25.478136      222.01627      0.97891504     0.96407981     1.0889656      722.9322     
     52300   1.0503819      204.82448      25.307478      230.13195      1.0309656      0.96034197     1.0942814      726.06267    
     52400   1.0136495      197.66166      18.28792       215.94958      1.008038       0.81955953     0.95241018     735.36309    
     52500   0.94928789     185.11114      12.583034      197.69417      0.95376337     0.67579561     0.80240558     745.13505    
     52600   0.94509039     184.29263      12.602688      196.89531      0.95421789     0.68023695     0.80787608     746.58306    
     52700   1.0772092      210.05579      18.657931      228.71372      1.0864625      0.89255169     1.0394322      737.18235    
     52800   1.0665569      207.9786       26.557565      234.53616      1.0738217      1.0687303      1.2154931      726.69079    
     52900   0.95411442     186.05231      25.768721      211.82103      0.966031       1.0103597      1.1441343      725.06072    
     53000   0.95056254     185.3597       18.240278      203.59997      0.97284113     0.8247273      0.96105574     731.19559    
     53100   0.98434966     191.94818      13.292305      205.24049      1.014675       0.68230593     0.82533285     736.58582    
     53200   1.0012211      195.23811      14.719206      209.95732      1.0355696      0.72343958     0.87089022     733.69498    
     53300   0.91964529     179.33083      21.980519      201.31135      0.95577333     0.88274279     1.0218826      723.80968    
     53400   0.8587194      167.45028      28.532375      195.98266      0.9030401      1.0177616      1.1537527      714.31509    
     53500   0.95181939     185.60478      26.001382      211.60616      1.021917       1.0250159      1.1848528      712.08178    
     53600   0.97856984     190.82112      17.770378      208.5915       1.0736812      0.83651318     1.0087463      718.60434    
     53700   0.89974585     175.45044      13.218248      188.66869      0.99890416     0.6611771      0.8226144      726.15486    
     53800   0.87785935     171.18257      12.984505      184.16708      0.97539323     0.65758828     0.81556032     725.49325    
     53900   0.9107534      177.59691      16.60147       194.19838      1.002885       0.77779056     0.94027106     715.46057    
     54000   0.94137869     183.56885      22.87076       206.43961      1.021612       0.95503387     1.1198581      702.345      
     54100   0.92224314     179.83741      26.037542      205.87495      0.98724269     1.0598572      1.2173537      694.77559    
     54200   0.80100506     156.19599      23.346529      179.54252      0.84990602     1.0018959      1.1350696      697.03321    
     54300   0.8468549      165.13671      18.434429      183.57114      0.89713906     0.86583145     1.0042189      706.16976    
     54400   0.9225972      179.90645      15.951671      195.85813      0.98056672     0.79573993     0.94565788     716.38914    
     54500   0.95455768     186.13875      16.415079      202.55383      1.0138979      0.76973875     0.92292381     724.17859    
     54600   0.97280256     189.6965       19.322315      209.01881      1.0265923      0.81024958     0.96276684     728.4096     
     54700   0.95803687     186.81719      21.436518      208.25371      1.0033906      0.83004943     0.97673806     730.63774    
     54800   0.91006402     177.46248      21.612637      199.07512      0.94958564     0.84041556     0.97812746     731.71683    
     54900   0.90910197     177.27488      22.069125      199.34401      0.94797984     0.85780195     0.99511852     731.76322    
     55000   1.0170148      198.31788      23.620263      221.93814      1.0592367      0.93066382     1.0837063      732.07439    
     55100   1.0193665      198.77646      23.568925      222.34539      1.058432       0.9950775      1.1461159      737.19052    
     55200   0.90311214     176.10687      19.460387      195.56725      0.9341141      0.85145357     0.98157943     749.9552     
     55300   0.88542112     172.65712      15.55359       188.21071      0.91336739     0.71910012     0.84357579     762.87621    
     55400   1.065754       207.82203      14.340845      222.16288      1.0970965      0.74499904     0.89287607     768.39001    
     55500   1.0049795      195.971        17.277811      213.24881      1.031814       0.76537416     0.90397141     767.33492    
     55600   0.91958145     179.31838      24.031898      203.35028      0.93933229     0.81025019     0.93635458     760.52851    
     55700   0.95811072     186.83159      31.002719      217.83431      0.97119762     0.90847857     1.0387899      749.96776    
     55800   1.0880557      212.17086      31.953099      244.12396      1.0963885      1.0297969      1.1768673      741.6241     
     55900   1.0372932      202.27218      25.497889      227.77007      1.0417367      0.95154231     1.0903028      741.97402    
     56000   0.92601441     180.57281      18.945492      199.5183       0.92635378     0.7941808      0.91573895     747.36947    
     56100   0.98780241     192.62147      15.762907      208.38438      0.98533823     0.75392192     0.88217731     749.15084    
     56200   1.068624       208.38168      15.250665      223.63235      1.0650893      0.82346314     0.96268843     744.76045    
     56300   1.0227467      199.43561      17.162049      216.59766      1.0208563      0.88433883     1.0194828      737.54885    
     56400   0.91741102     178.89515      19.446518      198.34167      0.92069128     0.91071508     1.0351133      730.45598    
     56500   0.95088728     185.42302      20.889491      206.31251      0.96123139     0.9802366      1.1129803      724.83896    
     56600   0.98993965     193.03823      19.542838      212.58107      1.0083214      0.96376705     1.1051182      724.43654    
     56700   0.98389532     191.85959      16.602511      208.4621       1.0086479      0.82661045     0.96872739     729.49958    
     56800   0.95764055     186.73991      15.213332      201.95324      0.98762955     0.78330063     0.92301533     734.60814    
     56900   0.94332237     183.94786      15.473673      199.42154      0.97801435     0.77867588     0.91801699     736.39678    
     57000   0.98283101     191.65205      17.448828      209.10088      1.0222336      0.85594841     1.0028446      734.27654    
     57100   1.0134278      197.61842      18.713052      216.33147      1.0549594      0.89340113     1.0457821      731.61824    
     57200   0.94487568     184.25076      17.163057      201.41382      0.98321289     0.85233596     0.99444274     730.65206    
     57300   0.89069172     173.68489      14.434644      188.11953      0.92646639     0.80482623     0.9389003      729.22202    
     57400   0.97204046     189.54789      12.873314      202.4212       1.0127986      0.85033297     0.99826259     724.68318    
     57500   1.0963872      213.7955       13.403391      227.19889      1.1472832      0.88381207     1.053886       719.4428     
     57600   0.98761959     192.58582      15.611661      208.19748      1.038841       0.85717538     1.0133003      716.05843    
     57700   0.93376952     182.08506      19.680758      201.76582      0.98807661     0.89667408     1.0472261      713.51673    
     57800   0.91338981     178.11101      25.349799      203.46081      0.97018927     0.96202515     1.1108028      713.51085    
[...]
   2385900   1.1089508      216.24541      161.48775      377.73316      1.078222       9.095316       9.3645636      370.19321    
   2386000   1.1195429      218.31087      165.04704      383.35791      1.0660743      9.3292796      9.5833331      370.19321    
   2386100   1.1161838      217.65585      160.6702       378.32605      1.0810122      9.3406794      9.6083254      370.19321    
   2386200   1.0990919      214.32291      153.5075       367.83042      1.1054579      9.2179259      9.5139233      370.19321    
   2386300   1.0592591      206.55552      155.07917      361.63469      1.1000941      9.1752479      9.4879821      370.19321    
   2386400   1.0250819      199.89097      158.5567       358.44767      1.0882256      9.0921491      9.4134924      370.19321    
   2386500   1.0199263      198.88563      155.82699      354.71261      1.0975417      9.1846059      9.5160385      370.19321    
   2386600   1.0169845      198.31197      157.79966      356.11163      1.090809       9.5352915      9.8629449      370.19321    
   2386700   1.0120101      197.34197      165.12743      362.4694       1.0657999      9.740089       10.050569      370.19321    
   2386800   1.0189338      198.69209      168.80904      367.50113      1.0532349      9.7235894      10.020477      370.19321    
   2386900   1.048351       204.42844      163.08394      367.51238      1.0727742      9.4122947      9.7091515      370.19321    
   2387000   1.0762495      209.86865      157.07832      366.94696      1.0932709      8.9897743      9.2881583      370.19321    
   2387100   1.0782847      210.26551      162.41239      372.6779       1.075066       9.0586415      9.3415446      370.19321    
   2387200   1.0708583      208.81737      172.65078      381.46815      1.0401231      9.2548292      9.5139876      370.19321    
   2387300   1.0765315      209.92364      173.32254      383.24618      1.0378305      9.2278254      9.482181       370.19321    
   2387400   1.0888561      212.32694      164.8397       377.16664      1.0667819      9.1736163      9.4443942      370.19321    
   2387500   1.0923529      213.00881      158.31574      371.32455      1.0890479      9.1961698      9.4827289      370.19321    
   2387600   1.0736628      209.36425      162.57286      371.93711      1.0745186      9.4472482      9.7321526      370.19321    
   2387700   1.0313134      201.10612      174.51559      375.62171      1.0337586      9.7770747      10.052026      370.19321    
   2387800   0.98289199     191.66394      186.62669      378.29063      0.99242393     10.032929      10.300671      370.19321    
   2387900   0.96271092     187.72863      190.13528      377.86391      0.9804494      10.207701      10.476596      370.19321    
   2388000   0.99058141     193.16338      180.37872      373.5421       1.0137479      9.9883751      10.268944      370.19321    
   2388100   1.0359352      202.00736      168.64722      370.65459      1.0537871      9.5739505      9.8623195      370.19321    
   2388200   1.0624253      207.17292      163.45539      370.62832      1.0715065      9.5736544      9.8620943      370.19321    
   2388300   1.0590108      206.5071       166.43681      372.94391      1.0613312      9.7274963      10.009681      370.19321    
   2388400   1.0481902      204.39708      170.38824      374.78532      1.0478454      9.7019513      9.9791622      370.19321    
   2388500   1.0756689      209.75544      165.57197      375.32741      1.0642829      9.6295752      9.9053216      370.19321    
   2388600   1.1259189      219.55418      158.88438      378.43856      1.0871076      9.4642356      9.7315781      370.19321    
   2388700   1.1716843      228.47843      149.82253      378.30096      1.1180352      9.2884163      9.5561302      370.19321    
   2388800   1.1827537      230.63697      144.27988      374.91685      1.136952       9.2443549      9.5212103      370.19321    
   2388900   1.1497805      224.2072       147.23862      371.44583      1.1268537      9.1816501      9.4678815      370.19321    
   2389000   1.0877575      212.11272      162.28545      374.39817      1.0754999      9.472763       9.7510198      370.19321    
   2389100   1.027475       200.35762      176.88911      377.24673      1.0256581      9.7879128      10.058475      370.19321    
   2389200   0.98582846     192.23655      186.19649      378.43303      0.99389218     10.057378      10.324735      370.19321    
   2389300   0.9631668      187.81753      193.50678      381.3243       0.96894275     10.233606      10.493153      370.19321    
   2389400   0.97856343     190.81987      189.50158      380.32144      0.98261234     10.109199      10.371455      370.19321    
   2389500   1.0249903      199.8731       178.17654      378.04964      1.0212641      9.8682541      10.136647      370.19321    
   2389600   1.0808816      210.77192      168.78791      379.55983      1.0533073      9.7583681      10.022682      370.19321    
   2389700   1.1171555      217.84532      160.82189      378.66721      1.0804952      9.5459643      9.8126893      370.19321    
   2389800   1.1303339      220.41511      151.80475      372.21986      1.1112702      9.0762625      9.3604035      370.19321    
   2389900   1.1206998      218.53646      145.33459      363.87105      1.1333528      8.7827146      9.0894083      370.19321    
   2390000   1.0965318      213.8237       146.30786      360.13156      1.1300311      8.6491949      8.96599        370.19321    
   2390100   1.0755087      209.72419      154.15345      363.87764      1.1032545      8.8094832      9.1161592      370.19321    
   2390200   1.0608831      206.87221      163.01992      369.89213      1.0729937      9.0989721      9.3894014      370.19321    
   2390300   1.0531878      205.37162      164.55146      369.92307      1.0677665      9.3139369      9.6042825      370.19321    
   2390400   1.0524626      205.23021      157.4812       362.71141      1.0918968      9.2921451      9.6019713      370.19321    
   2390500   1.0478505      204.33085      150.7909       355.12175      1.1147303      9.0858338      9.4161616      370.19321    
   2390600   1.0322672      201.2921       155.23232      356.52442      1.0995719      9.1158557      9.4423946      370.19321    
   2390700   1.0253872      199.95051      166.2411       366.1916       1.0619997      9.2839176      9.5843429      370.19321    
   2390800   1.0376096      202.33388      171.57981      373.91369      1.0437789      9.4570476      9.7366134      370.19321    
   2390900   1.0582559      206.35989      167.15889      373.51878      1.0588672      9.5865277      9.86716        370.19321    
   2391000   1.0846949      211.51551      159.18895      370.70446      1.0860681      9.6335012      9.9217357      370.19321    
   2391100   1.1157749      217.57611      156.48387      374.05998      1.0953007      9.691893       9.9710634      370.19321    
   2391200   1.1486605      223.98879      158.74701      382.7358       1.0875767      9.8380483      10.093783      370.19321    
   2391300   1.1626557      226.71786      160.82079      387.53865      1.0804992      9.7834584      10.026219      370.19321    
   2391400   1.155268       225.27726      156.36495      381.64222      1.0957066      9.6042439      9.8629325      370.19321    
   2391500   1.1169552      217.80627      153.03059      370.83686      1.1070865      9.4122628      9.7001397      370.19321    
   2391600   1.0639302      207.46638      157.45084      364.91722      1.0920004      9.2320162      9.5358839      370.19321    
   2391700   1.0267682      200.2198       167.13554      367.35535      1.058947       9.2285148      9.5257965      370.19321    
   2391800   1.026194       200.10784      175.93758      376.04541      1.028906       9.3866418      9.6604491      370.19321    
   2391900   1.0433731      203.45776      177.81115      381.26891      1.0225116      9.4400581      9.6997552      370.19321    
   2392000   1.0485141      204.46025      174.60424      379.0645       1.0334564      9.429662       9.6953138      370.19321    
   2392100   1.0244059      199.75915      177.26067      377.01982      1.0243903      9.5654723      9.8366475      370.19321    
   2392200   1.0026413      195.51506      182.74879      378.26384      1.0056598      9.8121637      10.079979      370.19321    
   2392300   1.0181638      198.54193      181.65415      380.19609      1.0093956      9.9288691      10.191464      370.19321    
   2392400   1.0634114      207.36523      175.43983      382.80506      1.0306046      9.9261223      10.18167       370.19321    
   2392500   1.101041       214.70299      171.62667      386.32966      1.043619       9.7619446      10.007971      370.19321    
   2392600   1.1225972      218.90646      164.74133      383.64779      1.0671185      9.6099228      9.863194       370.19321    
   2392700   1.1211326      218.62085      155.26949      373.89034      1.0994453      9.6698262      9.9494549      370.19321    
   2392800   1.0906465      212.67606      155.54983      368.22589      1.0984885      9.8209995      10.115929      370.19321    
   2392900   1.0490262      204.56011      168.99312      373.55323      1.0526074      10.051531      10.332071      370.19321    
   2393000   1.02595        200.06026      181.08047      381.14072      1.0113537      10.199754      10.459798      370.19321    
   2393100   1.0309114      201.02773      183.51805      384.54578      1.0030343      9.9351297      10.185975      370.19321    
   2393200   1.0554721      205.81705      177.27737      383.09443      1.0243334      9.6759435      9.9307095      370.19321    
   2393300   1.0819723      210.9846       170.74101      381.72562      1.0466417      9.4069002      9.6653636      370.19321    
   2393400   1.099169       214.33796      167.10663      381.44459      1.059046       9.1435921      9.4028149      370.19321    
   2393500   1.1271611      219.79642      158.82891      378.62533      1.0872974      9.092447       9.3592853      370.19321    
   2393600   1.1667141      227.50926      150.59669      378.10594      1.1153936      8.866503       9.1347442      370.19321    
   2393700   1.1967796      233.37203      150.44677      383.8188       1.1159051      8.9708229      9.2236319      370.19321    
   2393800   1.1999812      233.99633      158.27265      392.26898      1.0891958      9.4867663      9.716749       370.19321    
   2393900   1.1796473      230.03123      165.85766      395.88889      1.0633086      9.8615638      10.081768      370.19321    
   2394000   1.1370977      221.73405      166.68508      388.41913      1.0604846      9.8920992      10.132482      370.19321    
   2394100   1.0935675      213.24567      162.21235      375.45801      1.0757497      9.5200429      9.7954369      370.19321    
   2394200   1.0620199      207.09388      159.82255      366.91643      1.0839059      9.1230227      9.4214899      370.19321    
   2394300   1.0503268      204.81372      163.19822      368.01194      1.072385       9.2730201      9.5685282      370.19321    
   2394400   1.0582475      206.35827      165.78566      372.14392      1.0635541      9.4544454      9.7387917      370.19321    
   2394500   1.0728887      209.21329      164.23374      373.44703      1.0688506      9.4958994      9.7767256      370.19321    
   2394600   1.084181       211.4153       163.83716      375.25246      1.0702042      9.6477462      9.9236954      370.19321    
   2394700   1.084721       211.5206       165.90769      377.42829      1.0631375      9.6720576      9.9421293      370.19321    
   2394800   1.0583176      206.37193      170.95225      377.32418      1.0459206      9.6454286      9.9157815      370.19321    
   2394900   1.0149231      197.91001      178.61654      376.52655      1.0197629      9.8230853      10.095593      370.19321    
   2395000   1.004721       195.9206       180.4548       376.3754       1.013489       10.037376      10.310292      370.19321    
   2395100   1.0377818      202.36745      177.44503      379.81248      1.0237611      10.240709      10.50434       370.19321    
   2395200   1.0820885      211.00726      173.54016      384.54743      1.0370884      10.381149      10.63199       370.19321    
   2395300   1.109355       216.32422      168.16348      384.48771      1.0554386      10.313186      10.564188      370.19321    
   2395400   1.0959356      213.70744      169.22339      382.93083      1.0518211      10.268153      10.52336       370.19321    
   2395500   1.0616952      207.03055      179.78366      386.81421      1.0157797      10.404169      10.648887      370.19321    
   2395600   1.0477193      204.30527      186.67731      390.98258      0.99225203     10.465608      10.699066      370.19321    
   2395700   1.0629457      207.27441      184.19401      391.46842      1.0007274      10.339328      10.571474      370.19321    
   2395800   1.086964       211.95797      173.34823      385.30621      1.0377435      10.133058      10.381849      370.19321    
   2395900   1.0946559      213.45791      163.14872      376.60663      1.0725539      9.7011314      9.9734226      370.19321    
   2396000   1.0752233      209.66854      164.90461      374.57315      1.0665613      9.6400736      9.9178581      370.19321    
   2396100   1.0403344      202.8652       172.88681      375.75201      1.0393187      9.8557699      10.13037       370.19321    
   2396200   1.0153303      197.98941      173.19814      371.18755      1.0382559      9.8004645      10.087395      370.19321    
   2396300   1.0088349      196.72281      167.99149      364.7143       1.0560259      9.6568755      9.9612916      370.19321    
   2396400   1.030147       200.87867      165.34419      366.22285      1.0650609      9.6229218      9.9232628      370.19321    
   2396500   1.0705532      208.75787      164.45693      373.2148       1.0680894      9.7422354      10.023689      370.19321    
   2396600   1.1189701      218.19917      157.31493      375.5141       1.0924648      9.6102829      9.8855257      370.19321    
   2396700   1.1550153      225.22798      146.52258      371.75056      1.1292986      9.1742711      9.4596802      370.19321    
   2396800   1.1673278      227.62893      138.74959      366.37852      1.1558276      8.6462699      8.9461904      370.19321    
   2396900   1.172418       228.6215       135.21017      363.83167      1.1679077      8.3655534      8.6723538      370.19321    
   2397000   1.1826151      230.60995      133.11514      363.72509      1.1750581      8.2774619      8.5845504      370.19321    
   2397100   1.1821322      230.51578      131.04228      361.55806      1.1821326      8.3456582      8.6586004      370.19321    
   2397200   1.1578955      225.78962      135.72298      361.5126       1.1661574      8.6886441      9.001709       370.19321    
   2397300   1.1209793      218.59095      148.06069      366.65165      1.1240492      9.1347763      9.4339591      370.19321    
   2397400   1.0864012      211.84824      162.3618       374.21003      1.0752403      9.397438       9.6762037      370.19321    
   2397500   1.0704702      208.7417       169.8328       378.5745       1.0497417      9.4783702      9.745346       370.19321    
   2397600   1.0682448      208.30774      172.36555      380.67329      1.0410976      9.6668766      9.928183       370.19321    
   2397700   1.069772       208.60554      174.05906      382.6646       1.0353176      9.753672       10.009599      370.19321    
   2397800   1.0656894      207.80942      175.66846      383.47789      1.0298249      9.7962189      10.049949      370.19321    
   2397900   1.0525739      205.25191      173.68974      378.94166      1.0365782      9.7140947      9.9800788      370.19321    
   2398000   1.0358681      201.99427      170.14784      372.14211      1.0486667      9.5845465      9.8688982      370.19321    
   2398100   1.042617       203.31032      166.58882      369.89913      1.0608133      9.5794498      9.8698603      370.19321    
   2398200   1.0850932      211.59317      163.28377      374.87694      1.0720935      9.5864213      9.8633854      370.19321    
   2398300   1.1522758      224.69379      158.29309      382.98688      1.0891264      9.5409259      9.7959826      370.19321    
   2398400   1.2066895      235.30445      154.92157      390.22603      1.1006334      9.279261       9.5147627      370.19321    
   2398500   1.2287717      239.61048      153.02861      392.63908      1.1070941      8.9814362      9.2104196      370.19321    
   2398600   1.2174826      237.40911      153.9903       391.39941      1.1038117      8.9166727      9.1490047      370.19321    
   2398700   1.1823532      230.55888      160.68105      391.23994      1.0809765      9.1802915      9.4130544      370.19321    
   2398800   1.1460813      223.48585      167.13841      390.62426      1.0589377      9.509699       9.744125       370.19321    
   2398900   1.1198624      218.37317      168.31722      386.69038      1.0549146      9.5843431      9.8293957      370.19321    
   2399000   1.1240332      219.18647      160.87571      380.06218      1.0803118      9.504803       9.7677599      370.19321    
   2399100   1.1415958      222.61118      156.14331      378.75449      1.0964634      9.3552805      9.62177        370.19321    
   2399200   1.1690146      227.95785      155.3912       383.34905      1.0990305      9.2359547      9.490033       370.19321    
   2399300   1.2035945      234.70093      153.23879      387.93972      1.1063768      9.5254947      9.7671724      370.19321    
   2399400   1.2315108      240.14461      147.71705      387.86166      1.1252222      9.455029       9.6969175      370.19321    
   2399500   1.2348139      240.7887       144.54266      385.33137      1.1360563      9.2312582      9.4799818      370.19321    
   2399600   1.2145051      236.82849      145.33151      382.16         1.1333642      9.2256703      9.4829608      370.19321    
   2399700   1.1847043      231.01733      145.54922      376.56655      1.132621       8.9623436      9.2347436      370.19321    
   2399800   1.1472345      223.71073      148.20559      371.91632      1.1235548      8.961471       9.2464325      370.19321    
   2399900   1.1248482      219.3454       154.9723       374.31769      1.1004602      9.2005779      9.4790526      370.19321    
   2400000   1.1197132      218.34408      164.0831       382.42718      1.0693655      9.4640557      9.7206244      370.19321    
Loop time of 103.67 on 4 procs for 200000 steps with 196 atoms

Performance: 16668.256 tau/day, 1929.196 timesteps/s, 378.122 katom-step/s
100.0% CPU use with 4 MPI tasks x 1 OpenMP threads

MPI task timing breakdown:
Section |  min time  |  avg time  |  max time  |%varavg| %total
---------------------------------------------------------------
Pair    | 37.052     | 38.291     | 39.16      |  13.3 | 36.94
Neigh   | 0.0034728  | 0.0036087  | 0.0037067  |   0.1 |  0.00
Comm    | 22.747     | 23.562     | 25.136     |  19.8 | 22.73
Output  | 1.1321     | 1.1706     | 1.2034     |   2.4 |  1.13
Modify  | 38.94      | 39.562     | 39.922     |   6.0 | 38.16
Other   |            | 1.081      |            |       |  1.04

Nlocal:             49 ave          52 max          46 min
Histogram: 1 1 0 0 0 0 0 0 1 1
Nghost:         478.75 ave         485 max         472 min
Histogram: 1 0 0 1 0 0 1 0 0 1
Neighs:         191.75 ave         210 max         174 min
Histogram: 1 0 1 0 0 0 0 1 0 1

Total # of neighbors = 767
Ave neighs/atom = 3.9132653
Neighbor list builds = 75
Dangerous builds = 0
unfix 1
undump mydump
unfix 1rdf
Total wall time: 0:13:22
